Program Version,EnergyPlus, Version 8.8.0-7c3bbe4830, YMD=2019.08.29 16:49
1,5,Environment Title[],Latitude[deg],Longitude[deg],Time Zone[],Elevation[m]
2,6,Day of Simulation[],Month[],Day of Month[],DST Indicator[1=yes 0=no],Hour[],StartMinute[],EndMinute[],DayType
3,3,Cumulative Day of Simulation[],Month[],Day of Month[],DST Indicator[1=yes 0=no],DayType  ! When Daily Report Variables Requested
4,2,Cumulative Days of Simulation[],Month[]  ! When Monthly Report Variables Requested
5,1,Cumulative Days of Simulation[] ! When Run Period Report Variables Requested
258,1,THERMAL ZONE 1 THERMAL ZONE,Zone Mean Air Temperature [C] !Hourly
259,1,THERMAL ZONE 2 THERMAL ZONE,Zone Mean Air Temperature [C] !Hourly
260,1,THERMAL ZONE 3 THERMAL ZONE,Zone Mean Air Temperature [C] !Hourly
261,1,THERMAL ZONE 4 THERMAL ZONE,Zone Mean Air Temperature [C] !Hourly
262,1,THERMAL ZONE 5 THERMAL ZONE,Zone Mean Air Temperature [C] !Hourly
263,1,THERMAL ZONE 6 THERMAL ZONE,Zone Mean Air Temperature [C] !Hourly
264,1,THERMAL ZONE 1 THERMAL ZONE,AFN Zone Infiltration Air Change Rate [ach] !Hourly
265,1,THERMAL ZONE 2 THERMAL ZONE,AFN Zone Infiltration Air Change Rate [ach] !Hourly
266,1,THERMAL ZONE 3 THERMAL ZONE,AFN Zone Infiltration Air Change Rate [ach] !Hourly
267,1,THERMAL ZONE 4 THERMAL ZONE,AFN Zone Infiltration Air Change Rate [ach] !Hourly
268,1,THERMAL ZONE 5 THERMAL ZONE,AFN Zone Infiltration Air Change Rate [ach] !Hourly
269,1,THERMAL ZONE 6 THERMAL ZONE,AFN Zone Infiltration Air Change Rate [ach] !Hourly
595,1,Whole Building,Facility Total HVAC Electric Demand Power [W] !Hourly
617,1,CV ELEC RHT COIL,Heating Coil Electric Energy [J] !Hourly
639,1,CV ELEC RHT COIL 1,Heating Coil Electric Energy [J] !Hourly
641,1,CV ELEC RHT COIL 2,Heating Coil Electric Energy [J] !Hourly
643,1,CV ELEC RHT COIL 3,Heating Coil Electric Energy [J] !Hourly
645,1,CV ELEC RHT COIL 4,Heating Coil Electric Energy [J] !Hourly
647,1,CV ELEC RHT COIL 5,Heating Coil Electric Energy [J] !Hourly
648,1,COIL COOLING WATER 1,Cooling Coil Total Cooling Energy [J] !Hourly
690,1,COIL COOLING WATER 2,Cooling Coil Total Cooling Energy [J] !Hourly
692,1,COIL COOLING WATER 3,Cooling Coil Total Cooling Energy [J] !Hourly
694,1,COIL COOLING WATER 4,Cooling Coil Total Cooling Energy [J] !Hourly
696,1,COIL COOLING WATER 5,Cooling Coil Total Cooling Energy [J] !Hourly
698,1,COIL COOLING WATER 6,Cooling Coil Total Cooling Energy [J] !Hourly
700,1,FAN VARIABLE VOLUME 1,Fan Electric Energy [J] !Hourly
721,1,FAN VARIABLE VOLUME 2,Fan Electric Energy [J] !Hourly
722,1,FAN VARIABLE VOLUME 3,Fan Electric Energy [J] !Hourly
723,1,FAN VARIABLE VOLUME 4,Fan Electric Energy [J] !Hourly
724,1,FAN VARIABLE VOLUME 5,Fan Electric Energy [J] !Hourly
725,1,FAN VARIABLE VOLUME 6,Fan Electric Energy [J] !Hourly
726,1,CHILLER - WATER COOLED,Chiller Electric Energy [J] !Hourly
789,1,PUMP VARIABLE SPEED 1,Pump Electric Energy [J] !Hourly
End of Data Dictionary
1,RUN PERIOD 1,  33.63, -84.43,  -5.00, 308.00
2,1, 3, 1, 0, 1, 0.00,60.00,Sunday
258,15.263388368488738
259,15.032736526867322
260,14.90197938812555
261,18.112637565674729
262,14.26704934445309
263,14.525877412116817
264,0.1612216932437922
265,0.12212629537826284
266,0.0
267,0.0
268,0.08034618601918163
269,0.2523055459823088
595,18932.813251212654
617,0.0
639,0.0
641,0.0
643,0.0
645,207727.85527808098
647,0.0
648,36537825.54666176
690,5957874.810339402
692,1044329.9954384265
694,3749618.5853369755
696,16341796.012796194
698,17687102.588577227
700,9833427.516610189
721,4561823.570410369
722,1586868.1485596379
723,750477.7605017049
724,6323558.622847754
725,6130215.8949700989
726,37603104.71571482
789,1160923.6194729114
2,1, 3, 1, 0, 2, 0.00,60.00,Sunday
258,15.268179859538236
259,15.07302704800951
260,15.076320456750882
261,17.89395448519624
262,14.260005258868599
263,14.486071119785109
264,0.22233247199065388
265,0.21219024464250844
266,0.0
267,0.0
268,0.1384641021060702
269,0.25467412598176977
595,19547.14828341936
617,0.0
639,0.0
641,0.0
643,0.0
645,1313742.7320901375
647,0.0
648,38977718.09251531
690,10037966.973886673
692,2055891.7492557392
694,4036234.6122730618
696,17668401.376081539
698,18775254.91451174
700,9833427.516610189
721,4561823.570410369
722,1586868.1485596379
723,750477.7605017049
724,6323558.622847754
725,6130215.8949700989
726,38657201.77751833
789,1212417.7968014898
2,1, 3, 1, 0, 3, 0.00,60.00,Sunday
258,15.159362794089063
259,14.96628809844779
260,14.807665592304144
261,17.73715077511864
262,14.260008524194073
263,14.309424814044636
264,0.17027820109686984
265,0.15024093681641824
266,0.0
267,0.0
268,0.09874722491008239
269,0.27529129710455477
595,17810.153694746758
617,0.0
639,0.0
641,0.0
643,0.0
645,2948539.1699788009
647,595298.7545172703
648,33652568.567762497
690,2516381.316906375
692,2559.639504255329
694,3199874.541470943
696,15242941.610995269
698,15099367.76624273
700,9833427.516610189
721,4561823.570410369
722,1586868.1485596379
723,750477.7605017049
724,6323558.622847754
725,6130215.8949700989
726,30743851.513095417
789,642492.3495970691
2,1, 3, 1, 0, 4, 0.00,60.00,Sunday
258,15.049583784065533
259,14.556501407970027
260,14.294565565712741
261,17.613994605106126
262,14.26000957595889
263,14.260006508881565
264,0.14269560288815925
265,0.046707700644827317
266,0.0
267,0.0
268,0.03245518036308762
269,0.24792119606124189
595,18072.82258929906
617,0.0
639,539866.334462669
641,1782405.5391258177
643,0.0
645,3788032.3208418705
647,3798160.3997778699
648,28327064.044885294
690,0.0
692,0.0
694,2384486.9750369086
696,12817791.79818277
698,12278706.640279204
700,9833427.516610189
721,4561823.570410369
722,1586868.1485596379
723,750477.7605017049
724,6323558.622847754
725,6130215.8949700989
726,25443197.711821259
789,524127.50154737677
2,1, 3, 1, 0, 5, 0.00,60.00,Sunday
258,14.93670044985054
259,14.260009793730138
260,14.260018479772644
261,17.507821967470244
262,14.260010025322586
263,14.260007477538645
264,0.147833877060509
265,0.06732713786675701
266,0.0
267,0.0
268,0.042815099303900028
269,0.2230656870891695
595,19877.327930271393
617,0.0
639,4239286.105226312
641,4364650.128994555
643,0.0
645,4953369.015983011
647,5714982.4763993159
648,24997134.105688014
690,0.0
692,0.0
694,1956964.2876713714
696,11630846.42532439
698,11102204.463210902
700,9833427.516610189
721,4561823.570410369
722,1586868.1485596379
723,750477.7605017049
724,6323558.622847754
725,6130215.8949700989
726,22626070.58592572
789,473650.7225483515
2,1, 3, 1, 0, 6, 0.00,60.00,Sunday
258,14.848725992905088
259,14.259986833022634
260,14.257618250271488
261,17.41986021932272
262,14.260003996802272
263,14.260002106235584
264,0.1730444107654753
265,0.1469512143456542
266,0.0
267,0.0
268,0.09363179364654428
269,0.2658828527475288
595,21737.44525055569
617,0.0
639,7325995.524630323
641,5464027.792512879
643,0.0
645,6482349.759343027
647,8062534.181706984
648,23205150.440763359
690,0.0
692,0.0
694,1758250.0576362317
696,11161253.850068132
698,10637286.149913064
700,9833427.516610189
721,4561823.570410369
722,1586868.1485596379
723,750477.7605017049
724,6323558.622847754
725,6130215.8949700989
726,21284379.28842468
789,449144.8414828513
2,1, 3, 1, 0, 7, 0.00,60.00,Sunday
258,14.75242355358299
259,14.25995587100989
260,14.248450486126356
261,17.34972574495907
262,14.259990867384606
263,14.25998864523605
264,0.22091557976711408
265,0.2077165200860846
266,0.0
267,0.0
268,0.13452846865531338
269,0.37304596082861166
595,23087.2976601724
617,0.0
639,8284913.813602887
641,5719659.491043639
643,0.0
645,7560069.636681278
647,11173098.04736912
648,22152966.648105675
690,0.0
692,0.0
694,1724372.385981839
696,11197104.273956107
698,10673882.12967443
700,9833427.516610189
721,4561823.570410369
722,1586868.1485596379
723,750477.7605017049
724,6323558.622847754
725,6130215.8949700989
726,20749305.23575842
789,440853.8382655338
2,1, 3, 1, 0, 8, 0.00,60.00,Sunday
258,14.810107047843616
259,14.259975566364357
260,14.259922562204471
261,17.294208347843374
262,14.259987099075584
263,14.259986324590959
264,0.17916765789580398
265,0.1570082476552559
266,0.0
267,0.0
268,0.10347300083749667
269,0.3513214294132671
595,21613.89539868644
617,0.0
639,5856668.157324063
641,5321034.952397922
643,0.0
645,6278930.796116272
647,9088989.942706909
648,23306205.22167272
690,0.0
692,0.0
694,1815356.4398481425
696,11613898.955161725
698,11088396.361158172
700,9833427.516610189
721,4561823.570410369
722,1586868.1485596379
723,750477.7605017049
724,6323558.622847754
725,6130215.8949700989
726,21619594.003198159
789,458434.06962808829
2,1, 3, 1, 0, 9, 0.00,60.00,Sunday
258,17.933244113896746
259,17.771482273731427
260,16.103157871351806
261,17.356387527237055
262,17.596802984905204
263,17.965640424000676
264,0.1457851089539925
265,0.09060449962858336
266,0.0
267,0.0
268,0.06415901423967305
269,0.5122327300304841
595,93069.91798181384
617,78753230.09776633
639,42511364.38316202
641,5961534.261885291
643,147299.11466093624
645,50154587.08501705
647,68229956.96802683
648,58775791.26173462
690,0.0
692,0.0
694,1848288.4180179525
696,35992473.26912205
698,37470976.53380314
700,9833427.516610189
721,4561823.570410369
722,1586868.1485596377
723,750477.7605017049
724,6323558.622847754
725,6130215.8949700989
726,58996288.67202151
789,1111072.6380901412
2,1, 3, 1, 0,10, 0.00,60.00,Sunday
258,18.17997864421404
259,18.180017479910615
260,17.070575720315288
261,17.56181092391902
262,18.179955172851778
263,18.179979390663055
264,0.20754973394700139
265,0.1733981857043358
266,0.0
267,0.0
268,0.11350391929584625
269,0.2621054504607522
595,73531.07925909912
617,58005237.43480596
639,31764074.471141027
641,5961534.261885291
643,147299.11466093624
645,38042815.81297184
647,34648358.69320632
648,62488640.01555012
690,0.0
692,0.0
694,1973096.4231067044
696,41229082.63286082
698,39683946.443088177
700,9833427.516610189
721,4561823.570410369
722,1586868.1485596379
723,750477.7605017049
724,6323558.622847754
725,6130215.8949700989
726,65762855.65484674
789,1193338.37533895
2,1, 3, 1, 0,11, 0.00,60.00,Sunday
258,18.17999361455886
259,18.180009040409517
260,17.44240771425642
261,17.836336510635957
262,18.17997461405718
263,18.179986667519928
264,0.14168941893255969
265,0.09543604776033137
266,0.0
267,0.0
268,0.06284285546236365
269,0.5033670718720533
595,72671.92459818223
617,54120286.66389087
639,27733481.445377396
641,5961534.261885291
643,147299.11466093624
645,34854840.73372249
647,41322592.6186187
648,63163222.832365307
690,0.0
692,0.0
694,2263287.0666808595
696,41634887.49005239
698,40082364.730146307
700,9833427.516610189
721,4561823.570410369
722,1586868.1485596379
723,750477.7605017049
724,6323558.622847754
725,6130215.8949700989
726,66531052.23454436
789,1761469.9668562622
2,1, 3, 1, 0,12, 0.00,60.00,Sunday
258,18.179993328526327
259,18.17998872941171
260,17.8829404981877
261,18.068299701706349
262,18.179976221473106
263,18.179987404805524
264,0.04951105456089418
265,0.05830490489709576
266,0.0
267,0.0
268,0.03610091054351481
269,0.5481581181071679
595,68890.76320819622
617,47039713.70401784
639,24494050.633898647
641,5961534.261885291
643,147299.11466093624
645,32476074.958532838
647,39623262.608242239
648,64545526.457685168
690,1380789.365217235
692,0.0
694,2657097.5373175169
696,42462338.3264618
698,40902216.85826709
700,9833427.516610189
721,4561823.570410369
722,1586868.1485596379
723,750477.7605017049
724,6323558.622847754
725,6130215.8949700989
726,66598162.98350724
789,2480277.7708615257
2,1, 3, 1, 0,13, 0.00,60.00,Sunday
258,18.180006904816567
259,18.180039541895736
260,18.174003036830507
261,18.235994830325646
262,18.179993831111199
263,18.18000168306742
264,0.04878165214931736
265,0.049272733291927928
266,0.0
267,0.0
268,0.03084034589657047
269,0.5517400420515468
595,63804.206239107916
617,40535273.78171859
639,21551001.856422526
641,5460180.623745464
643,9600.782284835961
645,29157604.206476667
647,34792122.124574627
648,65270399.50331711
690,2670508.0983318935
692,0.0
694,2892386.489325998
696,42896835.093569938
698,41331026.83084979
700,9833427.516610189
721,4561823.570410369
722,1586868.1485596379
723,750477.7605017049
724,6323558.622847754
725,6130215.8949700989
726,66598162.98350724
789,2404824.5881587734
2,1, 3, 1, 0,14, 0.00,60.00,Sunday
258,18.180003726333657
259,18.17999132040014
260,18.179991774596325
261,18.403797205804506
262,18.179993364692345
263,18.17999781412347
264,0.08705614027574142
265,0.024705580290985967
266,0.0
267,0.0
268,0.015533131627343589
269,0.4913471762116705
595,55947.773518651826
617,32353839.230339927
639,17070082.309981578
641,4141541.284442145
643,0.0
645,24072123.281286025
647,25608316.722541419
648,66057627.59154077
690,4090741.3446013338
692,0.0
694,3137536.9237905235
696,43367918.70890286
698,41793969.25761679
700,9833427.516610189
721,4561823.570410369
722,1586868.1485596379
723,750477.7605017049
724,6323558.622847754
725,6130215.8949700989
726,66598162.98350724
789,2381547.341148426
2,1, 3, 1, 0,15, 0.00,60.00,Sunday
258,18.18000051569421
259,18.18000259971759
260,18.179996327720557
261,18.581162254626898
262,18.179990543214595
263,18.179995802863944
264,0.09755887506459286
265,0.027491440025730297
266,0.0
267,0.0
268,0.01812340916172704
269,0.48209220434080615
595,52687.724225311154
617,29838791.140535349
639,15684182.773697718
641,2351192.630246684
643,0.0
645,22163474.439145898
647,21520135.156365068
648,67425809.52368169
690,6565959.698076415
692,0.0
694,3495112.3034969798
696,44185277.06613435
698,42604630.76071974
700,9833427.516610189
721,4561823.570410369
722,1586868.1485596379
723,750477.7605017049
724,6323558.622847754
725,6130215.8949700989
726,66598162.98350724
789,2333496.5737224409
2,1, 3, 1, 0,16, 0.00,60.00,Sunday
258,18.180008891181605
259,18.180023413981936
260,18.18000152579921
261,18.73753982028761
262,18.179998699400487
263,18.180001272454953
264,0.06388705268492093
265,0.03216827725822703
266,0.0
267,0.0
268,0.020830889453717327
269,0.5133149449130194
595,56288.215329022496
617,35556275.227614868
639,18196878.57880922
641,730834.0647559936
643,0.0
645,24803780.87588583
647,25223048.95058228
648,68804279.01907909
690,9065814.129348979
692,0.0
694,3842544.185991166
696,45008732.54598221
698,43419693.013946119
700,9833427.516610189
721,4561823.570410369
722,1586868.1485596379
723,750477.7605017049
724,6323558.622847754
725,6130215.8949700989
726,66598162.98350723
789,2342222.9894257865
2,1, 3, 1, 0,17, 0.00,60.00,Sunday
258,18.18001503257137
259,18.180027771227878
260,18.185940271636789
261,18.829692194137075
262,18.180004534483218
263,18.180004110875094
264,0.08696976293515395
265,0.035410578350039887
266,0.0
267,0.0
268,0.022720449097967299
269,0.43931029824046366
595,56962.42917859861
617,38596162.670550469
639,19002119.469374267
641,0.0
643,0.0
645,25334269.481930119
647,24007595.56044628
648,69517281.75285974
690,10353967.73022549
692,0.0
694,4030530.316785533
696,45435311.76947966
698,43840002.25949278
700,9833427.516610189
721,4561823.570410369
722,1586868.1485596379
723,750477.7605017049
724,6323558.622847754
725,6130215.8949700989
726,66598162.98350723
789,2340063.3632468616
2,1, 3, 1, 0,18, 0.00,60.00,Sunday
258,18.180021244935057
259,18.180031708078876
260,18.199195216751684
261,18.87897755888077
262,18.18000950436796
263,18.180006479458286
264,0.12557676007893735
265,0.08437515812983139
266,0.0
267,0.0
268,0.05427610818769971
269,0.4060190919670159
595,60712.44307309341
617,45008996.78208596
639,21322201.93664946
641,0.0
643,0.0
645,27808005.44419439
647,26322083.559965958
648,69523396.29733654
690,10352919.029578364
692,0.0
694,4063326.3652941344
696,45440300.12906909
698,43843034.83645749
700,9833427.516610189
721,4561823.570410369
722,1586868.1485596379
723,750477.7605017049
724,6323558.622847754
725,6130215.8949700989
726,66598162.98350724
789,2318972.8428334968
2,1, 3, 1, 0,19, 0.00,60.00,Sunday
258,18.180003920978775
259,18.179961275640573
260,18.18203869305981
261,18.81677640871515
262,18.17999161874305
263,18.17999289942413
264,0.12587639963518389
265,0.07842906799184361
266,0.0
267,0.0
268,0.05071078527828177
269,0.4075672741045593
595,66832.57603491887
617,53642681.02035817
639,24974975.622272538
641,689068.5626481803
643,0.0
645,31671095.715505098
647,31622748.106155397
648,68753646.31531646
690,8928327.456160723
692,0.0
694,3888084.139524922
696,44982101.9507134
698,43388457.151073548
700,9833427.516610189
721,4561823.570410369
722,1586868.1485596379
723,750477.7605017049
724,6323558.622847754
725,6130215.8949700989
726,66598162.98350723
789,2212170.2013615018
2,1, 3, 1, 0,20, 0.00,60.00,Sunday
258,18.179998959001968
259,18.18000067381327
260,18.179997480410436
261,18.731559869462037
262,18.17998492988894
263,18.179991254616966
264,0.16009536942132736
265,0.12109630881098199
266,0.0
267,0.0
268,0.07818718663412652
269,0.17429180946166979
595,69428.59187274112
617,58697300.89197883
639,27764608.38915075
641,2186694.5852941914
643,0.0
645,35091101.02539357
647,28384068.924551067
648,67425212.48455116
690,6454932.554494031
692,0.0
694,3589004.404238477
696,44190279.25849883
698,42605082.134248238
700,9833427.516610189
721,4561823.570410369
722,1586868.1485596379
723,750477.7605017049
724,6323558.622847754
725,6130215.8949700989
726,66598162.98350723
789,2034622.4280925855
2,1, 3, 1, 0,21, 0.00,60.00,Sunday
258,18.18001473034656
259,18.18004086001255
260,18.180007246537369
261,18.661264228038044
262,18.179999535865855
263,18.180000318848959
264,0.17325726731273204
265,0.21793658468991357
266,0.0
267,0.0
268,0.14048676223546364
269,0.1313122169726983
595,71428.87465795
617,60725787.2780172
639,29903744.761201
641,2962230.3965687139
643,0.0
645,37397704.15413723
647,28417179.524674626
648,66856774.8499605
690,5382235.284835014
692,0.0
694,3440118.0238896405
696,43852608.03941829
698,42269697.20152003
700,9833427.516610189
721,4561823.570410369
722,1586868.1485596379
723,750477.7605017049
724,6323558.622847754
725,6130215.8949700989
726,66598162.983507249
789,1952768.1566142312
2,1, 3, 1, 0,22, 0.00,60.00,Sunday
258,18.180022961021736
259,18.180042704381415
260,18.180007356932895
261,18.594440345842267
262,18.180008190448626
263,18.180005536801404
264,0.16997990542737513
265,0.18313089650392795
266,0.0
267,0.0
268,0.11824377485597412
269,0.11072420945689768
595,71348.51096570769
617,61237508.31596061
639,29680049.758124897
641,2552720.384844342
643,0.0
645,37216928.19252066
647,28427375.050895703
648,67513643.66355925
690,6569749.204801884
692,0.0
694,3514879.9834844947
696,44245551.45248273
698,42659163.09587243
700,9833427.516610189
721,4561823.570410369
722,1586868.1485596379
723,750477.7605017049
724,6323558.622847754
725,6130215.8949700989
726,66598162.98350723
789,1955523.2767944257
2,1, 3, 1, 0,23, 0.00,60.00,Sunday
258,16.19401820687904
259,16.038783019042606
260,16.12369366272633
261,18.523165746750533
262,15.497950614196445
263,15.849114866594974
264,0.15213926042848104
265,0.12889649429832226
266,0.0
267,0.0
268,0.07898910994276293
269,0.15156171065912089
595,21449.67620418948
617,0.0
639,0.0
641,0.0
643,0.0
645,0.0
647,0.0
648,45595879.01372159
690,2391913.674380639
692,0.0
694,3461049.2985213666
696,24904444.138856993
698,26486675.419119095
700,9833427.516610189
721,4561823.570410369
722,1586868.1485596379
723,750477.7605017049
724,6323558.622847754
725,6130215.8949700989
726,46748202.481157328
789,1284260.3400250492
2,1, 3, 1, 0,24, 0.00,60.00,Sunday
258,15.338958008564993
259,15.094998002630235
260,14.941060969250732
261,18.361880723207077
262,14.41569563350302
263,14.737078541039527
264,0.13812761703601504
265,0.11104763575582663
266,0.0
267,0.0
268,0.06593378200203323
269,0.13389866327413769
595,17040.889876651047
617,0.0
639,0.0
641,0.0
643,0.0
645,0.0
647,0.0
648,33228736.461920997
690,0.0
692,0.0
694,3117232.719763231
696,14976926.164532902
698,16743527.551088388
700,9833427.516610189
721,4561823.570410369
722,1586868.1485596379
723,750477.7605017049
724,6323558.622847754
725,6130215.8949700989
726,31254950.321129584
789,905881.7209144286
2,2, 3, 2, 0, 1, 0.00,60.00,Monday
258,15.194094242813993
259,14.679007145912582
260,14.453314852567582
261,18.11171275856339
262,14.262707427252718
263,14.533079897102022
264,0.13330788768268524
265,0.11744546613207978
266,0.0
267,0.0
268,0.07259378486449676
269,0.08344892484715133
595,16560.083045658637
617,0.0
639,0.0
641,0.0
643,0.0
645,1247503.479193199
647,0.0
648,30780191.62893722
690,0.0
692,0.0
694,2834287.1415595205
696,13301719.81192882
698,14784065.654578858
700,9833427.516610189
721,4561823.570410369
722,1586868.1485596379
723,750477.7605017049
724,6323558.622847754
725,6130215.8949700989
726,28332265.35287388
789,850158.6184042738
2,2, 3, 2, 0, 2, 0.00,60.00,Monday
258,15.125897081376817
259,14.488525858490027
260,14.264323334183719
261,17.87970524625909
262,14.260001058119187
263,14.375941964692237
264,0.1176483032794982
265,0.14214988669798585
266,0.0
267,0.0
268,0.09032882817494484
269,0.09995170377508385
595,16932.33904122951
617,0.0
639,0.0
641,604349.855167913
643,0.0
645,3114983.6339153328
647,0.0
648,29948557.50789631
690,0.0
692,0.0
694,2687733.5477955897
696,13264114.516932227
698,13622786.91845963
700,9833427.516610189
721,4561823.570410369
722,1586868.1485596379
723,750477.7605017049
724,6323558.622847754
725,6130215.8949700989
726,27210109.1460252
789,840606.3994180198
2,2, 3, 2, 0, 3, 0.00,60.00,Monday
258,15.053556811526054
259,14.323482937904359
260,14.259998813566876
261,17.69635990526894
262,14.26000033336678
263,14.270225775662713
264,0.13125183276197803
265,0.12066449887552669
266,0.0
267,0.0
268,0.07724504081831012
269,0.12025504949022119
595,17596.057792839747
617,0.0
639,624857.1922982428
641,2216415.3169011047
643,0.0
645,4102076.6622041549
647,879557.5355083434
648,28358346.65351494
690,0.0
692,0.0
694,2429046.4210880936
696,12799898.446881468
698,12357129.281204377
700,9833427.516610189
721,4561823.570410369
722,1586868.1485596379
723,750477.7605017049
724,6323558.622847754
725,6130215.8949700989
726,25540740.255715249
789,795789.5776962383
2,2, 3, 2, 0, 4, 0.00,60.00,Monday
258,14.963980603387118
259,14.260006087599522
260,14.260011089266266
261,17.556068889212964
262,14.260001933526562
263,14.260001020479212
264,0.15214046002932803
265,0.14248237589061489
266,0.0
267,0.0
268,0.09203879788796615
269,0.1488445808955638
595,19098.262944222777
617,0.0
639,2758470.8264885086
641,3395083.023454687
643,0.0
645,5217919.601093819
647,3115505.030209214
648,26604094.493730688
690,0.0
692,0.0
694,2212911.496173695
696,12380949.607557716
698,11847088.635505373
700,9833427.516610189
721,4561823.570410369
722,1586868.1485596379
723,750477.7605017049
724,6323558.622847754
725,6130215.8949700989
726,24310902.875567449
789,769493.7284885692
2,2, 3, 2, 0, 5, 0.00,60.00,Monday
258,14.905356145123449
259,14.260004994356981
260,14.260007466162345
261,17.450095924287969
262,14.260002448448529
263,14.260002021159736
264,0.16912289019785765
265,0.13817571276014407
266,0.0
267,0.0
268,0.08947926147098578
269,0.2423433285046342
595,20128.872152314892
617,0.0
639,3171233.5211786169
641,3750447.352123348
643,0.0
645,5711373.259553223
647,5897664.794808998
648,25908376.875133814
690,0.0
692,0.0
694,2145416.6334341939
696,12380198.64517697
698,11846263.36492012
700,9833427.516610189
721,4561823.570410369
722,1586868.1485596379
723,750477.7605017049
724,6323558.622847754
725,6130215.8949700989
726,23969319.81676998
789,777529.4899996733
2,2, 3, 2, 0, 6, 0.00,60.00,Monday
258,14.837614439827198
259,14.260003940701
260,14.260001356903766
261,17.370805829732249
262,14.260001725780242
263,14.260001865939774
264,0.21209277602873573
265,0.19157987395526417
266,0.0
267,0.0
268,0.12383602398834129
269,0.40463459373513208
595,21656.679422762725
617,0.0
639,4012069.340315368
641,3997919.961961914
643,0.0
645,6630611.664814257
647,9795785.367110325
648,25144038.75333217
690,0.0
692,0.0
694,2094706.006219735
696,12379060.026932719
698,11844819.286060427
700,9833427.516610189
721,4561823.570410369
722,1586868.1485596379
723,750477.7605017049
724,6323558.622847754
725,6130215.8949700989
726,23562481.594625877
789,778806.4792183164
2,2, 3, 2, 0, 7, 0.00,60.00,Monday
258,14.781305888328984
259,14.26000932007791
260,14.260012591779703
261,17.310410382597895
262,14.260002988935622
263,14.26000293168185
264,0.2189833278329357
265,0.2299829928911083
266,0.0
267,0.0
268,0.14860141610283784
269,0.4105712350910622
595,22216.878873024612
617,0.0
639,4661499.786265256
641,4179622.0603810336
643,0.0
645,7365276.4756603999
647,10514480.61614552
648,24438889.8184351
690,0.0
692,0.0
694,2056430.0972397607
696,12379018.341940787
698,11844825.584061433
700,9833427.516610189
721,4561823.570410369
722,1586868.1485596379
723,750477.7605017049
724,6323558.622847754
725,6130215.8949700989
726,23288398.52323643
789,785114.9673002176
2,2, 3, 2, 0, 8, 0.00,60.00,Monday
258,14.905129658203809
259,14.26001671341497
260,14.26003810588771
261,17.26495073497743
262,14.260006856163577
263,14.260004456665442
264,0.19767056800004496
265,0.230965575873759
266,0.0
267,0.0
268,0.14954820011925114
269,0.35192291375906989
595,21016.158233766404
617,0.0
639,4091573.6072402468
641,4298609.992910699
643,0.0
645,6709439.522722908
647,6470491.915121216
648,25694245.228207899
690,0.0
692,0.0
694,2026911.052359427
696,12380167.315588082
698,11845640.644192895
700,9833427.516610189
721,4561823.570410369
722,1586868.1485596379
723,750477.7605017049
724,6323558.622847754
725,6130215.8949700989
726,24057228.542586648
789,844454.5470775777
2,2, 3, 2, 0, 9, 0.00,60.00,Monday
258,17.95175347820556
259,17.76925937304838
260,16.353029661306424
261,17.34253185811511
262,17.556043718244739
263,17.97965873858574
264,0.19542997389662115
265,0.30701268350042557
266,0.0
267,0.0
268,0.19748698777165014
269,0.3205727531167487
595,87245.17948339765
617,69119433.6242191
639,42750538.41098069
641,5961534.261885291
643,147299.11466093624
645,51839760.90251434
647,51150760.98475233
648,61157959.7572067
690,1236164.1858203256
692,0.0
694,2210659.2065532745
696,36939979.291334908
698,38837209.542787279
700,9833427.516610189
721,4561823.570410369
722,1586868.1485596377
723,750477.7605017049
724,6323558.622847754
725,6130215.8949700989
726,61784527.39531209
789,2142419.9320069097
2,2, 3, 2, 0,10, 0.00,60.00,Monday
258,18.18000631911942
259,18.179988681224857
260,17.836615672306345
261,17.597783025163574
262,18.180008275939938
263,18.430133766508204
264,0.20820400178288563
265,0.2699146934852975
266,0.0
267,0.0
268,0.1745184776902413
269,0.3290566323471421
595,52177.52667439762
617,13711551.651956141
639,29292559.05973911
641,5412834.650331589
643,147299.11466093624
645,37742986.85831658
647,3270704.7526395369
648,67484997.80779647
690,6699620.41706065
692,0.0
694,2889413.8561194695
696,44221192.5570945
698,44174595.504519719
700,9833427.516610189
721,4561823.570410369
722,1586868.1485596379
723,750477.7605017049
724,6323558.622847754
725,6130215.8949700989
726,66598162.98350723
789,2476625.4427805377
2,2, 3, 2, 0,11, 0.00,60.00,Monday
258,18.180003897060229
259,18.180042580791338
260,18.180002676676247
261,17.99768519137195
262,18.180011393187308
263,19.456018900935825
264,0.1683855639516632
265,0.1825716724908831
266,0.0
267,0.0
268,0.11798885464685119
269,0.18573848125065368
595,45344.46497327197
617,7679808.920753484
639,23923696.4626907
641,1239508.120697118
643,136588.12607843718
645,31683509.906892
647,0.0
648,71547238.54815275
690,14143383.042251176
692,1087985.3664545317
694,3873476.395017017
696,46646005.3608605
698,54098079.87583903
700,9833427.516610189
721,4561823.570410369
722,1586868.1485596379
723,750477.7605017049
724,6323558.622847754
725,6130215.8949700989
726,66598162.98350723
789,2792427.869260368
2,2, 3, 2, 0,12, 0.00,60.00,Monday
258,18.180007512788117
259,18.180017673090533
260,18.19725281436033
261,18.39624224325698
262,18.180010131794757
263,19.563363177832483
264,0.11906554699423773
265,0.14843705026849969
266,0.0
267,0.0
268,0.09619239147372413
269,0.12456831247179415
595,43287.735942817424
617,15760273.894214509
639,17307416.321323918
641,80835.12363691651
643,0.0
645,23819325.060346325
647,0.0
648,75617159.87360217
690,21607435.835425889
692,4743221.892289434
694,4862689.808840889
696,49074232.467870119
698,57633093.202107179
700,9833427.516610189
721,4561823.570410369
722,1586868.1485596379
723,750477.7605017049
724,6323558.622847754
725,6130215.8949700989
726,66598162.98350723
789,3083464.497214039
2,2, 3, 2, 0,13, 0.00,60.00,Monday
258,18.180012007289255
259,18.18005669077162
260,18.3371669256819
261,18.74662210361226
262,18.180019675840023
263,19.314194183991597
264,0.12141263635914801
265,0.1750708275758071
266,0.0
267,0.0
268,0.11349038125342286
269,0.195823841542566
595,40472.930618043414
617,13832635.959419586
639,13542799.85279723
641,0.0
643,0.0
645,19252066.586175745
647,0.0
648,79024074.39971009
690,27855711.24749915
692,7879053.3426865669
694,5702385.589647171
696,51106333.78296585
698,57840900.590666
700,9833427.516610189
721,4561823.570410369
722,1586868.1485596379
723,750477.7605017049
724,6323558.622847754
725,6130215.8949700989
726,66598162.98350723
789,3290513.3291567068
2,2, 3, 2, 0,14, 0.00,60.00,Monday
258,18.18001122241104
259,18.180039244786224
260,18.483280481306929
261,19.011263130426785
262,18.180025401487386
263,19.088784325074778
264,0.19212639128604754
265,0.2107771156400068
266,0.0
267,0.0
268,0.13711632457766236
269,0.30745537504833439
595,38616.37204505452
617,9970604.53359012
639,12257720.53982549
641,0.0
643,0.0
645,17682586.199047176
647,0.0
648,81057624.31094747
690,31620506.515306936
692,9772050.699116918
694,6242913.5529134119
696,52319354.215332608
698,57377193.72085501
700,9833427.516610189
721,4561823.570410369
722,1586868.1485596379
723,750477.7605017049
724,6323558.622847754
725,6130215.8949700989
726,66598162.98350724
789,3323493.5923264955
2,2, 3, 2, 0,15, 0.00,60.00,Monday
258,18.180007498029306
259,18.18000442602248
260,18.603390893283117
261,19.194922903980385
262,18.180012441400487
263,18.781778678005244
264,0.21582543749782524
265,0.2481315928036028
266,0.0
267,0.0