Program Version,EnergyPlus, Version 8.8.0-7c3bbe4830, YMD=2019.08.08 22:02
1,5,Environment Title[],Latitude[deg],Longitude[deg],Time Zone[],Elevation[m]
2,6,Day of Simulation[],Month[],Day of Month[],DST Indicator[1=yes 0=no],Hour[],StartMinute[],EndMinute[],DayType
3,3,Cumulative Day of Simulation[],Month[],Day of Month[],DST Indicator[1=yes 0=no],DayType  ! When Daily Meters Requested
4,2,Cumulative Days of Simulation[],Month[]  ! When Monthly Meters Requested
5,1,Cumulative Days of Simulation[] ! When Run Period Meters Requested
10,9,Electricity:Facility [J] !Monthly  [Value,Min,Day,Hour,Minute,Max,Day,Hour,Minute]
631,9,Heating:Electricity [J] !Monthly  [Value,Min,Day,Hour,Minute,Max,Day,Hour,Minute]
740,9,Cooling:Electricity [J] !Monthly  [Value,Min,Day,Hour,Minute,Max,Day,Hour,Minute]
40,9,InteriorLights:Electricity [J] !Monthly  [Value,Min,Day,Hour,Minute,Max,Day,Hour,Minute]
176,9,InteriorEquipment:Electricity [J] !Monthly  [Value,Min,Day,Hour,Minute,Max,Day,Hour,Minute]
793,9,Pumps:Electricity [J] !Monthly  [Value,Min,Day,Hour,Minute,Max,Day,Hour,Minute]
704,9,Fans:Electricity [J] !Monthly  [Value,Min,Day,Hour,Minute,Max,Day,Hour,Minute]
End of Data Dictionary
1,RUN PERIOD 1,  33.63, -84.43,  -5.00, 308.00
4,31, 1
10,82164250524.02007,3166002.0516095825, 3, 6,24,9329570.34346973,19,16,60
40,42606064191.18677,1673460.7196793415, 1, 1, 3,3713203.6554352899, 1, 9, 3
176,4511786929.434716,33222.756235253415, 1, 1, 3,529431.8115144275, 1, 9, 3
631,0.0,0.0, 1, 1, 3,0.0, 1, 1, 3
704,21714660406.34214,1459318.5756949876, 1, 1, 3,1459318.5756949876, 1, 1, 3
740,13000849760.337683,0.0, 3, 6,24,3476039.4342535475,19,16,60
793,330889236.7139369,0.0, 3, 6,24,192709.2106037667,31,16, 3
4,59, 2
10,83673794135.75555,3166002.0516095825, 1, 4, 6,9526724.698105118,28,15,60
40,38482896688.814029,1673460.7196793415, 1, 1, 3,3713203.6554352899, 1, 9, 3
176,4075162387.8764555,33222.756235253415, 1, 1, 3,529431.8115144275, 1, 9, 3
631,0.0,0.0, 1, 1, 3,0.0, 1, 1, 3
704,19613241657.341287,1459318.5756949876, 1, 1, 3,1459318.5756949876, 1, 1, 3
740,20961439287.767488,0.0, 1, 4, 6,3690165.428960539,28,15,60
793,541054113.9536836,0.0, 1, 4, 6,159232.9264150766,16,17,60
4,90, 3
10,106927825179.58737,3166002.0516095825, 6, 6,51,10128187.398051829,30,18, 3
40,42606064191.18677,1673460.7196793415, 1, 1, 3,3713203.6554352899, 1, 9, 3
176,4511786929.434716,33222.756235253415, 1, 1, 3,529431.8115144275, 1, 9, 3
631,0.0,0.0, 1, 1, 3,0.0, 1, 1, 3
704,21714660406.34214,1459318.5756949876, 1, 1, 3,1459318.5756949876, 1, 1, 3
740,36964938990.63351,0.0, 6, 6,51,4229111.5207234169,30,18, 3
793,1130374661.9845327,0.0, 6, 6,51,267956.82880069906,13,18,30
4,120, 4
10,116609914077.25317,3225405.503182171, 6, 5,60,10835685.595548355, 4,16, 6
40,41231675023.72919,1673460.7196793415, 1, 1, 3,3713203.6554352899, 1, 9, 3
176,4366245415.58191,33222.756235253415, 1, 1, 3,529431.8115144275, 1, 9, 3
631,0.0,0.0, 1, 1, 3,0.0, 1, 1, 3
704,21014187490.008523,1459318.5756949876, 1, 1, 3,1459318.5756949876, 1, 1, 3
740,48041964201.752,58052.31111509183, 6, 5,60,4872426.923042607, 4,16, 6
793,1955841946.1791685,1351.1404574971475, 6, 5,60,339925.02560693389,15,15,51
4,151, 5
10,129379004633.63779,5128799.606683686,11, 6,48,11861986.58629387,30,15,60
40,42606064191.18677,1673460.7196793415, 1, 1, 3,3713203.6554352899, 1, 9, 3
176,4511786929.434716,33222.756235253415, 1, 1, 3,529431.8115144275, 1, 9, 3
631,0.0,0.0, 1, 1, 3,0.0, 1, 1, 3
704,21714660406.34214,1459318.5756949876, 1, 1, 3,1459318.5756949876, 1, 1, 3
740,57886870168.56103,1925056.520437705,11, 6,48,5874921.931221669,30,15,60
793,2659622938.1089656,37741.03463639844,11, 6,48,297557.7158802885,30,18,60
4,181, 6
10,138638003234.45734,5288245.309923948, 8, 6,33,13387109.02646229,29,17,60
40,41231675023.72919,1673460.7196793415, 1, 1, 3,3713203.6554352899, 1, 9, 3
176,4366245415.58191,33222.756235253415, 1, 1, 3,529431.8115144275, 1, 9, 3
631,0.0,0.0, 1, 1, 3,0.0, 1, 1, 3
704,21014187490.008523,1459318.5756949876, 1, 1, 3,1459318.5756949876, 1, 1, 3
740,68616209419.70227,2066540.5816105614, 8, 6,33,7327666.476392483,29,17,60
793,3409685885.4319126,54287.26185435912,10, 5,60,357488.5074251038,29,17,60
4,212, 7
10,151979311617.46237,6678887.397111954, 3, 6, 3,13919625.753998306, 7,17, 3
40,42606064191.18677,1673460.7196793415, 1, 1, 3,3713203.6554352899, 1, 9, 3
176,4511786929.434716,33222.756235253415, 1, 1, 3,529431.8115144275, 1, 9, 3
631,0.0,0.0, 1, 1, 3,0.0, 1, 1, 3
704,21714660406.34214,1459318.5756949876, 1, 1, 3,1459318.5756949876, 1, 1, 3
740,79072052123.93863,3372733.323966683, 3, 6, 3,7868401.891781684, 7,17, 3
793,4074747966.556902,140151.44343493228, 3, 5,60,362651.69479137766, 6,18,60
4,243, 8
10,155259082946.44955,6856170.19525825,26, 5,60,13929914.931175814, 1,17,60
40,42606064191.18677,1673460.7196793415, 1, 1, 3,3713203.6554352899, 1, 9, 3
176,4511786929.434716,33222.756235253415, 1, 1, 3,529431.8115144275, 1, 9, 3
631,0.0,0.0, 1, 1, 3,0.0, 1, 1, 3
704,21714660406.34214,1459318.5756949876, 1, 1, 3,1459318.5756949876, 1, 1, 3
740,82093664169.26668,3532937.6730171919,25, 7,15,7878660.214879852, 1,17,60
793,4332907250.216294,155977.95518166363,26, 5,60,379422.16232621108,20,17,15
4,273, 9
10,131610309959.30978,6053608.775150493,29, 4,60,13105081.492839756, 7,16,60
40,41231675023.72919,1673460.7196793415, 1, 1, 3,3713203.6554352899, 1, 9, 3
176,4366245415.58191,33222.756235253415, 1, 1, 3,529431.8115144275, 1, 9, 3
631,0.0,0.0, 1, 1, 3,0.0, 1, 1, 3
704,21014187490.008523,1459318.5756949876, 1, 1, 3,1459318.5756949876, 1, 1, 3
740,61952941195.6643,2820242.6036962785,29, 4,60,7058997.2701011649, 7,16,60
793,3045260834.3255279,67364.11984463246,29, 4,60,346149.5858308952, 6,13,39
4,304,10
10,120981340112.76643,3841092.5597584724,26, 7,57,11634322.722844409,18,16,60
40,42606064191.18677,1673460.7196793415, 1, 1, 3,3713203.6554352899, 1, 9, 3
176,4511786929.434716,33222.756235253415, 1, 1, 3,529431.8115144275, 1, 9, 3
631,0.0,0.0, 1, 1, 3,0.0, 1, 1, 3
704,21714660406.34214,1459318.5756949876, 1, 1, 3,1459318.5756949876, 1, 1, 3
740,50107947349.4336,660445.6183363921,26, 7,57,5615394.164013433,18,16,60
793,2040881236.36987,14644.889812498111,26, 7,57,318165.8538622102,18,17,42
4,334,11
10,100348497649.6736,3166002.0516095825,20,23,51,9999566.153017918,19,15,60
40,41231675023.72919,1673460.7196793415, 1, 1, 3,3713203.6554352899, 1, 9, 3
176,4366245415.58191,33222.756235253415, 1, 1, 3,529431.8115144275, 1, 9, 3
631,0.0,0.0, 1, 1, 3,0.0, 1, 1, 3
704,21014187490.008523,1459318.5756949876, 1, 1, 3,1459318.5756949876, 1, 1, 3
740,32770305107.28048,0.0,20,23,51,4091039.812463004,19,15,60
793,966084613.070681,0.0,20,23,51,206572.29791020728,19,15,60
4,365,12
10,90426758460.78647,3166002.0516095825, 1, 1, 3,9480541.729012583,13,12,12
40,42606064191.18677,1673460.7196793415, 1, 1, 3,3713203.6554352899, 1, 9, 3
176,4511786929.434716,33222.756235253415, 1, 1, 3,529431.8115144275, 1, 9, 3
631,0.0,0.0, 1, 1, 3,0.0, 1, 1, 3
704,21714660406.34214,1459318.5756949876, 1, 1, 3,1459318.5756949876, 1, 1, 3
740,21069199598.28159,0.0, 1, 1, 3,3612496.328603131,13,12,12
793,525047335.537024,0.0, 1, 1, 3,166092.27623531919,13,12, 9
End of Data
 Number of Records Written=          84
