Program Version,EnergyPlus, Version 8.8.0-7c3bbe4830, YMD=2019.07.16 15:17
1,5,Environment Title[],Latitude[deg],Longitude[deg],Time Zone[],Elevation[m]
2,6,Day of Simulation[],Month[],Day of Month[],DST Indicator[1=yes 0=no],Hour[],StartMinute[],EndMinute[],DayType
3,3,Cumulative Day of Simulation[],Month[],Day of Month[],DST Indicator[1=yes 0=no],DayType  ! When Daily Meters Requested
4,2,Cumulative Days of Simulation[],Month[]  ! When Monthly Meters Requested
5,1,Cumulative Days of Simulation[] ! When Run Period Meters Requested
10,9,Electricity:Facility [J] !Monthly  [Value,Min,Day,Hour,Minute,Max,Day,Hour,Minute]
631,9,Heating:Electricity [J] !Monthly  [Value,Min,Day,Hour,Minute,Max,Day,Hour,Minute]
740,9,Cooling:Electricity [J] !Monthly  [Value,Min,Day,Hour,Minute,Max,Day,Hour,Minute]
40,9,InteriorLights:Electricity [J] !Monthly  [Value,Min,Day,Hour,Minute,Max,Day,Hour,Minute]
176,9,InteriorEquipment:Electricity [J] !Monthly  [Value,Min,Day,Hour,Minute,Max,Day,Hour,Minute]
793,9,Pumps:Electricity [J] !Monthly  [Value,Min,Day,Hour,Minute,Max,Day,Hour,Minute]
704,9,Fans:Electricity [J] !Monthly  [Value,Min,Day,Hour,Minute,Max,Day,Hour,Minute]
End of Data Dictionary
1,RUN PERIOD 1,  33.63, -84.43,  -5.00, 308.00
4,31, 1
10,214537072976.901,4470560.08524854,29,23,60,29550529.69003757,19, 9, 6
40,42606064191.18677,1673460.7196793415, 1, 1, 3,3713203.6554352899, 1, 9, 3
176,4511786929.434716,33222.756235253415, 1, 1, 3,529431.8115144275, 1, 9, 3
631,118993736884.13828,0.0, 1,23, 3,20604746.192323328, 1, 9, 3
704,21714660406.34214,1459318.5756949876, 1, 1, 3,1459318.5756949876, 1, 1, 3
740,26107828337.514879,0.0, 5, 1,21,3604794.7617066588,19,22,60
793,602996228.2811418,0.0, 5, 1,21,202473.42617229178,31,16, 3
4,59, 2
10,174081488290.98566,3943365.813017575, 1, 1,30,29729794.863181425,18, 9, 6
40,38482896688.814029,1673460.7196793415, 1, 1, 3,3713203.6554352899, 1, 9, 3
176,4075162387.8764555,33222.756235253415, 1, 1, 3,529431.8115144275, 1, 9, 3
631,82293149277.2454,0.0, 1, 1, 3,20604746.192323328, 1, 9, 3
704,19613241657.341287,1459318.5756949876, 1, 1, 3,1459318.5756949876, 1, 1, 3
740,28868966888.52474,0.0, 1, 7, 9,3695865.2423398287,28,15,60
793,748071391.1775252,0.0, 1, 7, 9,179785.51915125364,22,16,36
4,90, 3
10,148574207732.05948,4470810.360114263,25, 1,24,29760265.33690324,29, 9, 3
40,42606064191.18677,1673460.7196793415, 1, 1, 3,3713203.6554352899, 1, 9, 3
176,4511786929.434716,33222.756235253415, 1, 1, 3,529431.8115144275, 1, 9, 3
631,38250603659.60386,0.0, 1, 1, 3,20604746.192323328, 1, 9, 3
704,21714660406.34214,1459318.5756949876, 1, 1, 3,1459318.5756949876, 1, 1, 3
740,40227249884.02758,5410.934385180153,19, 7,60,4230718.453003751,30,18, 3
793,1263842661.4575759,128.46875170024974,19, 7,60,268443.2259015381,13,18,30
4,120, 4
10,122116646301.0044,4453126.243008687, 5, 8,21,29714784.46203094, 2, 9, 3
40,41231675023.72919,1673460.7196793415, 1, 1, 3,3713203.6554352899, 1, 9, 3
176,4366245415.58191,33222.756235253415, 1, 1, 3,529431.8115144275, 1, 9, 3
631,5290705396.923451,0.0, 1, 1, 3,20597381.23659028, 1, 9, 3
704,21014187490.008523,1459318.5756949876, 1, 1, 3,1459318.5756949876, 1, 1, 3
740,48242633531.20477,74161.70546441888, 6, 5,60,4872946.597355745, 4,16, 6
793,1971199443.5537296,1720.5486977195042, 6, 5,60,339937.62117785328,15,15,51
4,151, 5
10,130126350940.2041,5129135.137850012,11, 6,48,20688587.712355663, 1, 9, 3
40,42606064191.18677,1673460.7196793415, 1, 1, 3,3713203.6554352899, 1, 9, 3
176,4511786929.434716,33222.756235253415, 1, 1, 3,529431.8115144275, 1, 9, 3
631,725222124.4465276,0.0, 1, 1, 3,11443455.345254027, 1, 9, 3
704,21714660406.34214,1459318.5756949876, 1, 1, 3,1459318.5756949876, 1, 1, 3
740,57906486183.261219,1925386.574592668,11, 6,48,5874987.389404008,30,15,60
793,2662131105.5290057,37746.51164776164,11, 6,48,297559.1989440187,30,18,60
4,181, 6
10,138835934978.17123,5288264.693736659, 8, 6,33,14358916.353270829,10, 9, 3
40,41231675023.72919,1673460.7196793415, 1, 1, 3,3713203.6554352899, 1, 9, 3
176,4366245415.58191,33222.756235253415, 1, 1, 3,529431.8115144275, 1, 9, 3
631,190284352.26329754,0.0, 1, 1, 3,5131468.173144369, 8, 9, 3
704,21014187490.008523,1459318.5756949876, 1, 1, 3,1459318.5756949876, 1, 1, 3
740,68623198582.59379,2066559.6291065666, 8, 6,33,7327696.186967463,29,17,60
793,3410344113.991636,54287.409345538654,10, 5,60,357489.8322675918,29,17,60
4,212, 7
10,152255367290.36432,6678888.729534516, 3, 6, 3,21140783.868255374,29, 9, 3
40,42606064191.18677,1673460.7196793415, 1, 1, 3,3713203.6554352899, 1, 9, 3
176,4511786929.434716,33222.756235253415, 1, 1, 3,529431.8115144275, 1, 9, 3
631,264998993.6754979,0.0, 1, 1, 3,11595658.974849709,29, 9, 3
704,21714660406.34214,1459318.5756949876, 1, 1, 3,1459318.5756949876, 1, 1, 3
740,79082322038.33272,3372734.524577729, 3, 6, 3,7868441.256881051, 7,17, 3
793,4075534731.3894827,140151.56363931055, 3, 5,60,362652.6345083739, 6,18,60
4,243, 8
10,155425041539.37802,6856172.513406335,26, 5,60,14697332.668547722,24, 9, 3
40,42606064191.18677,1673460.7196793415, 1, 1, 3,3713203.6554352899, 1, 9, 3
176,4511786929.434716,33222.756235253415, 1, 1, 3,529431.8115144275, 1, 9, 3
631,158439162.98030067,0.0, 1, 1, 3,4088895.2420083715,31, 9, 3
704,21714660406.34214,1459318.5756949876, 1, 1, 3,1459318.5756949876, 1, 1, 3
740,82100695701.89471,3532938.6601227459,25, 7,15,7878693.959063521, 1,17,60
793,4333395147.537066,155978.1724032586,26, 5,60,379424.05006781386,20,17,15
4,273, 9
10,132738269996.8764,6058873.666393684,29, 4,60,27834627.008361356,29, 9, 3
40,41231675023.72919,1673460.7196793415, 1, 1, 3,3713203.6554352899, 1, 9, 3
176,4366245415.58191,33222.756235253415, 1, 1, 3,529431.8115144275, 1, 9, 3
631,1099921967.7472385,0.0, 1, 1, 3,18715010.496990708,29, 9, 3
704,21014187490.008523,1459318.5756949876, 1, 1, 3,1459318.5756949876, 1, 1, 3
740,61977356825.0111,2825396.800009983,29, 4,60,7059045.716416995, 7,16,60
793,3048883274.7980539,67474.81477411848,29, 4,60,346158.1179931152, 6,13,39
4,304,10
10,128851468251.58069,4572903.681851034,21, 6, 9,29706492.89619894,23, 9, 3
40,42606064191.18677,1673460.7196793415, 1, 1, 3,3713203.6554352899, 1, 9, 3
176,4511786929.434716,33222.756235253415, 1, 1, 3,529431.8115144275, 1, 9, 3
631,7433405339.986038,0.0, 1, 1, 3,20597381.23659028,23, 9, 3
704,21714660406.34214,1459318.5756949876, 1, 1, 3,1459318.5756949876, 1, 1, 3
740,50516173412.46314,684335.1279316139,26, 7,57,5615610.80548774,18,16,60
793,2069377972.1699064,15133.349515358146,26, 7,57,318176.2676818909,18,17,42
4,334,11
10,152633374579.77087,4474445.8659621509,19, 4, 9,29760143.30719782,27, 9, 3
40,41231675023.72919,1673460.7196793415, 1, 1, 3,3713203.6554352899, 1, 9, 3
176,4366245415.58191,33222.756235253415, 1, 1, 3,529431.8115144275, 1, 9, 3
631,47920598483.15688,0.0, 1, 1, 3,20604746.192323328, 1, 9, 3
704,21014187490.008523,1459318.5756949876, 1, 1, 3,1459318.5756949876, 1, 1, 3
740,36983697494.12714,0.0,21, 1,42,4123505.3241530766,19,15,60
793,1116970673.161478,0.0,21, 1,42,209295.63445497419,19,15,60
4,365,12
10,189700004840.50974,4426958.501140966,14,24,39,29749571.460000975,13, 9, 3
40,42606064191.18677,1673460.7196793415, 1, 1, 3,3713203.6554352899, 1, 9, 3
176,4511786929.434716,33222.756235253415, 1, 1, 3,529431.8115144275, 1, 9, 3
631,88584656829.27841,0.0, 1,23, 3,20604746.192323328, 1, 9, 3
704,21714660406.34214,1459318.5756949876, 1, 1, 3,1459318.5756949876, 1, 1, 3
740,31501852491.8497,0.0, 1, 1,54,3732538.5156879879,13,12, 3
793,780983992.4113715,0.0, 1, 1,54,178548.28718497829,14,16,36
End of Data
 Number of Records Written=          84
