Program Version,EnergyPlus, Version 8.8.0-7c3bbe4830, YMD=2019.08.30 11:27
1,5,Environment Title[],Latitude[deg],Longitude[deg],Time Zone[],Elevation[m]
2,6,Day of Simulation[],Month[],Day of Month[],DST Indicator[1=yes 0=no],Hour[],StartMinute[],EndMinute[],DayType
3,3,Cumulative Day of Simulation[],Month[],Day of Month[],DST Indicator[1=yes 0=no],DayType  ! When Daily Report Variables Requested
4,2,Cumulative Days of Simulation[],Month[]  ! When Monthly Report Variables Requested
5,1,Cumulative Days of Simulation[] ! When Run Period Report Variables Requested
258,1,THERMAL ZONE 1 THERMAL ZONE,Zone Mean Air Temperature [C] !Hourly
259,1,THERMAL ZONE 2 THERMAL ZONE,Zone Mean Air Temperature [C] !Hourly
260,1,THERMAL ZONE 3 THERMAL ZONE,Zone Mean Air Temperature [C] !Hourly
261,1,THERMAL ZONE 4 THERMAL ZONE,Zone Mean Air Temperature [C] !Hourly
262,1,THERMAL ZONE 5 THERMAL ZONE,Zone Mean Air Temperature [C] !Hourly
263,1,THERMAL ZONE 6 THERMAL ZONE,Zone Mean Air Temperature [C] !Hourly
264,1,THERMAL ZONE 1 THERMAL ZONE,AFN Zone Infiltration Air Change Rate [ach] !Hourly
265,1,THERMAL ZONE 2 THERMAL ZONE,AFN Zone Infiltration Air Change Rate [ach] !Hourly
266,1,THERMAL ZONE 3 THERMAL ZONE,AFN Zone Infiltration Air Change Rate [ach] !Hourly
267,1,THERMAL ZONE 4 THERMAL ZONE,AFN Zone Infiltration Air Change Rate [ach] !Hourly
268,1,THERMAL ZONE 5 THERMAL ZONE,AFN Zone Infiltration Air Change Rate [ach] !Hourly
269,1,THERMAL ZONE 6 THERMAL ZONE,AFN Zone Infiltration Air Change Rate [ach] !Hourly
595,1,Whole Building,Facility Total HVAC Electric Demand Power [W] !Hourly
617,1,CV ELEC RHT COIL,Heating Coil Electric Energy [J] !Hourly
639,1,CV ELEC RHT COIL 1,Heating Coil Electric Energy [J] !Hourly
641,1,CV ELEC RHT COIL 2,Heating Coil Electric Energy [J] !Hourly
643,1,CV ELEC RHT COIL 3,Heating Coil Electric Energy [J] !Hourly
645,1,CV ELEC RHT COIL 4,Heating Coil Electric Energy [J] !Hourly
647,1,CV ELEC RHT COIL 5,Heating Coil Electric Energy [J] !Hourly
648,1,COIL COOLING WATER 1,Cooling Coil Total Cooling Energy [J] !Hourly
690,1,COIL COOLING WATER 2,Cooling Coil Total Cooling Energy [J] !Hourly
692,1,COIL COOLING WATER 3,Cooling Coil Total Cooling Energy [J] !Hourly
694,1,COIL COOLING WATER 4,Cooling Coil Total Cooling Energy [J] !Hourly
696,1,COIL COOLING WATER 5,Cooling Coil Total Cooling Energy [J] !Hourly
698,1,COIL COOLING WATER 6,Cooling Coil Total Cooling Energy [J] !Hourly
700,1,FAN VARIABLE VOLUME 1,Fan Electric Energy [J] !Hourly
721,1,FAN VARIABLE VOLUME 2,Fan Electric Energy [J] !Hourly
722,1,FAN VARIABLE VOLUME 3,Fan Electric Energy [J] !Hourly
723,1,FAN VARIABLE VOLUME 4,Fan Electric Energy [J] !Hourly
724,1,FAN VARIABLE VOLUME 5,Fan Electric Energy [J] !Hourly
725,1,FAN VARIABLE VOLUME 6,Fan Electric Energy [J] !Hourly
726,1,CHILLER - WATER COOLED,Chiller Electric Energy [J] !Hourly
789,1,PUMP VARIABLE SPEED 1,Pump Electric Energy [J] !Hourly
End of Data Dictionary
1,RUN PERIOD 1,  33.63, -84.43,  -5.00, 308.00
2,1, 3, 1, 0, 1, 0.00,60.00,Sunday
258,15.228676126483851
259,15.007781756932925
260,14.912640465153814
261,18.127723982041535
262,14.269485476477297
263,14.475154972619777
264,0.2959279503735723
265,0.24558029562724474
266,0.0
267,0.0
268,0.15945939306541846
269,0.4707662502113433
595,18945.71492465802
617,0.0
639,0.0
641,0.0
643,0.0
645,430478.99818308735
647,0.0
648,36198137.63182503
690,5910877.523903245
692,1044336.1167828261
694,3759184.9839714819
696,16363139.416356178
698,17348111.967591648
700,9833427.516610189
721,4561823.570410369
722,1586868.1485596379
723,750477.7605017049
724,6323558.622847754
725,6130215.8949700989
726,37426658.52345539
789,1161064.6932306686
2,1, 3, 1, 0, 2, 0.00,60.00,Sunday
258,15.217206713422574
259,15.040639794338926
260,15.083722933960982
261,17.905089941219424
262,14.260004941151891
263,14.448824528745325
264,0.3077354256045798
265,0.2895182545218694
266,0.0
267,0.0
268,0.18820252536774424
269,0.35367390163579695
595,19163.101688295916
617,0.0
639,0.0
641,0.0
643,0.0
645,1319121.9925010473
647,0.0
648,38308866.32475964
690,9964082.780183636
692,2055903.979966812
694,4043458.7367848425
696,17665930.034057239
698,18460561.88943067
700,9833427.516610189
721,4561823.570410369
722,1586868.1485596379
723,750477.7605017049
724,6323558.622847754
725,6130215.8949700989
726,37423393.978912379
789,1058278.59255212
2,1, 3, 1, 0, 3, 0.00,60.00,Sunday
258,15.175897346508004
259,14.9803444508152
260,14.812265200189066
261,17.744824830534428
262,14.260007868718045
263,14.33476196825946
264,0.16587112016570963
265,0.14434575668033138
266,0.0
267,0.0
268,0.09535800122010854
269,0.28004159390701169
595,18169.730381029894
617,0.0
639,0.0
641,0.0
643,0.0
645,2930137.948113102
647,1173606.1395944025
648,33876999.41714206
690,2559747.225180603
692,2560.25178011074
694,3204740.7676961647
696,15241520.818563998
698,15289696.976605267
700,9833427.516610189
721,4561823.570410369
722,1586868.1485596379
723,750477.7605017049
724,6323558.622847754
725,6130215.8949700989
726,31474708.193368775
789,646205.5767315842
2,1, 3, 1, 0, 4, 0.00,60.00,Sunday
258,15.034078677955316
259,14.524570014014112
260,14.29592618333406
261,17.62075000453842
262,14.260009640436414
263,14.260004963377958
264,0.14654411260018414
265,0.08208967409903707
266,0.0
267,0.0
268,0.0545399868603594
269,0.2361927689567363
595,18014.95253249108
617,0.0
639,661946.6195572749
641,1760944.147328726
643,0.0
645,4039248.5718290486
647,3311152.5852938
648,28103581.11331691
690,0.0
692,0.0
694,2388733.059374679
696,12816660.102914589
698,12276551.960670345
700,9833427.516610189
721,4561823.570410369
722,1586868.1485596379
723,750477.7605017049
724,6323558.622847754
725,6130215.8949700989
726,25371782.088664697
789,522383.59039459496
2,1, 3, 1, 0, 5, 0.00,60.00,Sunday
258,14.97624490352479
259,14.260010023525208
260,14.260018398738885
261,17.513934208078838
262,14.260009619295716
263,14.260003798922219
264,0.11952326088052268
265,0.07403170517251465
266,0.0
267,0.0
268,0.05090944178069662
269,0.10232385547570715
595,19161.68752703833
617,0.0
639,4253178.413260561
641,4345920.039447455
643,0.0
645,4997284.932054686
647,2909765.2551815134
648,25433811.515533929
690,0.0
692,0.0
694,1960799.4441382308
696,11629934.810606344
698,11101854.152682228
700,9833427.516610189
721,4561823.570410369
722,1586868.1485596379
723,750477.7605017049
724,6323558.622847754
725,6130215.8949700989
726,22812355.16655917
789,477199.7769348575
2,1, 3, 1, 0, 6, 0.00,60.00,Sunday
258,14.907179778224564
259,14.259987757744572
260,14.258013537660528
261,17.425757905795487
262,14.260002990635798
263,14.260001196035998
264,0.13941037827573528
265,0.07540718262115762
266,0.0
267,0.0
268,0.04743458570429577
269,0.14258821642815629
595,20531.267464014985
617,0.0
639,6481121.776121412
641,5447314.6842928309
643,0.0
645,5619760.771786638
647,5132044.508965185
648,23890988.609112014
690,0.0
692,0.0
694,1761940.8767198499
696,11160785.671143527
698,10637981.459350078
700,9833427.516610189
721,4561823.570410369
722,1586868.1485596379
723,750477.7605017049
724,6323558.622847754
725,6130215.8949700989
726,21591160.07367936
789,454789.5417087794
2,1, 3, 1, 0, 7, 0.00,60.00,Sunday
258,14.727489543966565
259,14.259953284741755
260,14.250074915341063
261,17.355011263016065
262,14.259989972765397
263,14.259987359682052
264,0.2680846357823905
265,0.25011896234143096
266,0.0
267,0.0
268,0.16187908859041
269,0.44571464781987
595,23755.40685218711
617,0.0
639,8734058.665918736
641,5702732.034057766
643,0.0
645,8001513.879514255
647,12768237.757533273
648,21947220.192984217
690,0.0
692,0.0
694,1727709.4350543644
696,11196928.461534068
698,10674491.546775366
700,9833427.516610189
721,4561823.570410369
722,1586868.1485596379
723,750477.7605017049
724,6323558.622847754
725,6130215.8949700989
726,20687373.21500205
789,439177.6019477522
2,1, 3, 1, 0, 8, 0.00,60.00,Sunday
258,14.749235972236573
259,14.259974858324588
260,14.259922740959102
261,17.298107312307147
262,14.259986854593148
263,14.259986651790064
264,0.20761449882507958
265,0.17890296370938359
266,0.0
267,0.0
268,0.11736946949397038
269,0.36985420533056437
595,21749.21034364799
617,0.0
639,6086898.8714129249
641,5309860.626448553
643,0.0
645,6499672.467454087
647,9482844.374079718
648,22540912.354721004
690,0.0
692,0.0
694,1817802.8252949527
696,11614190.654433778
698,11089401.662839396
700,9833427.516610189
721,4561823.570410369
722,1586868.1485596379
723,750477.7605017049
724,6323558.622847754
725,6130215.8949700989
726,21279379.034298775
789,452130.3495389475
2,1, 3, 1, 0, 9, 0.00,60.00,Sunday
258,17.935044516425145
259,17.771495551720756
260,16.103371721144833
261,17.359011488323007
262,17.60435717345136
263,17.968874975230539
264,0.14291522922017525
265,0.0851166101400396
266,0.0
267,0.0
268,0.05432608841408393
269,0.4850700657867244
595,92658.22617231705
617,78477969.83774844
639,42374090.70482723
641,5961534.261885291
643,147299.11466093624
645,50029856.29786269
647,67247761.87096071
648,58801269.27501688
690,0.0
692,0.0
694,1849960.483123707
696,36053464.43665299
698,37495824.44273123
700,9833427.516610189
721,4561823.570410369
722,1586868.1485596377
723,750477.7605017049
724,6323558.622847754
725,6130215.8949700989
726,59032834.70172393
789,1111895.916772431
2,1, 3, 1, 0,10, 0.00,60.00,Sunday
258,18.179979660733129
259,18.180016545645669
260,17.070727691125787
261,17.56375716693748
262,18.17995629310825
263,18.179979689815274
264,0.17573557210817895
265,0.10210556104316104
266,0.0
267,0.0
268,0.06781044154639117
269,0.2828317451373612
595,72481.01127848753
617,56336924.35447774
639,30414761.94515091
641,5961534.261885291
643,147299.11466093624
645,36689195.36662423
647,35238201.70881711
648,62489351.23909515
690,0.0
692,0.0
694,1974330.8935973596
696,41228928.93543417
698,39684495.88283892
700,9833427.516610189
721,4561823.570410369
722,1586868.1485596379
723,750477.7605017049
724,6323558.622847754
725,6130215.8949700989
726,65763994.79997543
789,1193357.5370636774
2,1, 3, 1, 0,11, 0.00,60.00,Sunday
258,18.179993866084425
259,18.180009276333707
260,17.443208762872254
261,17.838662315417296
262,18.17997386282495
263,18.179988307280536
264,0.12057623866655887
265,0.07424665617748126
266,0.0
267,0.0
268,0.04618135638230557
269,0.3761113676546652
595,70586.92922312785
617,52684576.60967227
639,27206072.528670476
641,5961534.261885291
643,147299.11466093624
645,34232386.850550677
647,36401859.990693759
648,63163334.8343584
690,0.0
692,0.0
694,2264756.5992664305
696,41633850.061989139
698,40082553.72925368
700,9833427.516610189
721,4561823.570410369
722,1586868.1485596379
723,750477.7605017049
724,6323558.622847754
725,6130215.8949700989
726,66531116.22598568
789,1761728.1072413349
2,1, 3, 1, 0,12, 0.00,60.00,Sunday
258,18.179993203203975
259,18.179988590038265
260,17.885635853482957
261,18.07270301859411
262,18.179975380818406
263,18.179988017475649
264,0.10364390808293511
265,0.11185118079756699
266,0.0
267,0.0
268,0.07119332106177806
269,0.4067419231531046
595,68408.40389608883
617,48970879.644561018
639,25248617.913695467
641,5961534.261885291
643,147299.11466093624
645,33232806.313112454
647,34461214.148434277
648,64545732.33473642
690,1380819.9142863346
692,0.0
694,2659820.636376405
696,42462036.369668189
698,40901184.78734687
700,9833427.516610189
721,4561823.570410369
722,1586868.1485596379
723,750477.7605017049
724,6323558.622847754
725,6130215.8949700989
726,66598162.98350724
789,2463368.132163346
2,1, 3, 1, 0,13, 0.00,60.00,Sunday
258,18.180007637197798
259,18.180040910984525
260,18.1748172349235
261,18.24261325230207
262,18.179993975741025
263,18.180001433974039
264,0.09988170693639462
265,0.08361819905408914
266,0.0
267,0.0
268,0.053844052449726387
269,0.6437657099331738
595,65450.33590877359
617,42561267.48404502
639,22071048.737796517
641,5437299.724509168
643,7364.955733046814
645,29694679.902055947
647,37658252.64709685
648,65270535.509518887
690,2670534.6067501248
692,0.0
694,2896461.5830934925
696,42896895.143284518
698,41330008.62070866
700,9833427.516610189
721,4561823.570410369
722,1586868.1485596379
723,750477.7605017049
724,6323558.622847754
725,6130215.8949700989
726,66598162.98350723
789,2406761.3229413458
2,1, 3, 1, 0,14, 0.00,60.00,Sunday
258,18.180003757364767
259,18.17999113629606
260,18.179991833285834
261,18.41242647394919
262,18.17999329796707
263,18.17999730761968
264,0.12711043171568174
265,0.07506518784512215
266,0.0
267,0.0
268,0.04840885600640975
269,0.5858199966562482
595,57718.84362159371
617,34093772.95910307
639,17889650.880626788
641,4119182.026458937
643,0.0
645,24894509.507199296
647,28620487.69003353
648,66056643.27638517
690,4090709.8849437457
692,0.0
694,3142914.3469021066
696,43367871.63419399
698,41793013.76169269
700,9833427.516610189
721,4561823.570410369
722,1586868.1485596379
723,750477.7605017049
724,6323558.622847754
725,6130215.8949700989
726,66598162.98350723
789,2385699.4769087729
2,1, 3, 1, 0,15, 0.00,60.00,Sunday
258,18.180000215687728
259,18.1800026031843
260,18.179996351365273
261,18.590351457644009
262,18.179990438214085
263,18.179996160677626
264,0.10516107815823402
265,0.09027088238186303
266,0.0
267,0.0
268,0.05750366268071615
269,0.3439015870180762
595,51622.441222979425
617,29321297.62725638
639,16349042.947410275
641,2327610.6090649829
643,0.0
645,22753103.524448564
647,16969446.810770189
648,67425122.99088472
690,6565976.332442663
692,0.0
694,3500824.4411522995
696,44185478.77202671
698,42603912.52302161
700,9833427.516610189
721,4561823.570410369
722,1586868.1485596379
723,750477.7605017049
724,6323558.622847754
725,6130215.8949700989
726,66598162.98350723
789,2335752.3863684877
2,1, 3, 1, 0,16, 0.00,60.00,Sunday
258,18.180008648963715
259,18.180023580818899
260,18.18004140552012
261,18.748417745681004
262,18.179998917254886
263,18.180000798818829
264,0.09682931364319095
265,0.09597989070871659
266,0.0
267,0.0
268,0.061576500386982518
269,0.34293206031552139
595,55240.72894235361
617,35888187.22379041
639,18787564.5304086
641,698629.661368298
643,0.0
645,25333447.159331673
647,20030574.548192767
648,68803738.4879433
690,9065775.672445294
692,0.0
694,3849255.3223912955
696,45009026.901476759
698,43419285.92534288
700,9833427.516610189
721,4561823.570410369
722,1586868.1485596379
723,750477.7605017049
724,6323558.622847754
725,6130215.8949700989
726,66598162.98350724
789,2343686.571974269
2,1, 3, 1, 0,17, 0.00,60.00,Sunday
258,18.18001448142381
259,18.1800273691832
260,18.192978025415259
261,18.842300494887409
262,18.180004651789408
263,18.18000383147445
264,0.09058971473178276
265,0.053148560792393887
266,0.0
267,0.0
268,0.03422042202834818
269,0.38551093294004898
595,56370.99871994823
617,38188586.43590476
639,19056247.315512267
641,0.0
643,0.0
645,25353290.580822119
647,22211986.927458474
648,69516602.32093239
690,10353950.77527916
692,0.0
694,4038377.0655467335
696,45435471.60807575
698,43840017.55504116
700,9833427.516610189
721,4561823.570410369
722,1586868.1485596379
723,750477.7605017049
724,6323558.622847754
725,6130215.8949700989
726,66598162.98350724
789,2340949.634709006
2,1, 3, 1, 0,18, 0.00,60.00,Sunday
258,18.180021678785765
259,18.180032531909398
260,18.20919724530537
261,18.89287401940896
262,18.18000980122391
263,18.18000697450854
264,0.20232579207324664
265,0.16633642807456759
266,0.0
267,0.0
268,0.1072485331310421
269,0.5075901825152303
595,62560.1551801188
617,47302838.96731889
639,22291459.467008514
641,0.0
643,0.0
645,28756349.539697283
647,28760772.869719037
648,69522552.92431736
690,10352893.244136839
692,0.0
694,4071978.195054563
696,45440284.49355304
698,43843191.98395277
700,9833427.516610189
721,4561823.570410369
722,1586868.1485596379
723,750477.7605017049
724,6323558.622847754
725,6130215.8949700989
726,66598162.98350723
789,2320603.307276983
2,1, 3, 1, 0,19, 0.00,60.00,Sunday
258,18.1800026127305
259,18.179960671515525
260,18.18424775792992
261,18.830438890582518
262,18.1799913330663
263,18.17999287166549
264,0.16296852892328174
265,0.12079631146968843
266,0.0
267,0.0
268,0.07779243481635069
269,0.43703488732879239
595,67511.0035468036
617,54652716.148917447
639,25452957.477128317
641,633710.5324497814
643,0.0
645,32117586.77774289
647,32181253.990907678
648,68751411.40818145
690,8928310.855476039
692,0.0
694,3896679.2462276427
696,44981753.08599114
698,43387943.10430392
700,9833427.516610189
721,4561823.570410369
722,1586868.1485596379
723,750477.7605017049
724,6323558.622847754
725,6130215.8949700989
726,66598162.98350723
789,2216853.3439398196
2,1, 3, 1, 0,20, 0.00,60.00,Sunday
258,18.179997787277825
259,18.180000608078033
260,18.17999756969527
261,18.745144835333478
262,18.179984719176127
263,18.179991074171597
264,0.14732798578316423
265,0.12936025268752816
266,0.0
267,0.0
268,0.08284211949173544
269,0.14187556291955445
595,68898.08032756731
617,57984810.437295328
639,27795347.188457714
641,2133291.224468985
643,0.0
645,35073115.13123894
647,27224271.7028167
648,67423781.32404438
690,6454957.173238586
692,0.0
694,3597511.009453766
696,44190101.674301479
698,42604357.81741379
700,9833427.516610189
721,4561823.570410369
722,1586868.1485596379
723,750477.7605017049
724,6323558.622847754
725,6130215.8949700989
726,66598162.98350723
789,2037718.997557634
2,1, 3, 1, 0,21, 0.00,60.00,Sunday
258,18.180013838849545
259,18.180040499506015
260,18.180007114876
261,18.67466285424265
262,18.179999401338017
263,18.17999990588097
264,0.15366663636392276
265,0.19618875761292382
266,0.0
267,0.0
268,0.12642902353314806
269,0.16232371890947309
595,71091.79270770446
617,59698839.938765767
639,29484147.65455512
641,2911029.175176892
643,0.0
645,36959359.72091971
647,29138011.825232369
648,66856052.78220592
690,5382304.913898453
692,0.0
694,3448510.9609993367
696,43852520.624155897
698,42269128.71227325
700,9833427.516610189
721,4561823.570410369
722,1586868.1485596379
723,750477.7605017049
724,6323558.622847754
725,6130215.8949700989
726,66598162.98350723
789,1954530.93567915
2,1, 3, 1, 0,22, 0.00,60.00,Sunday
258,18.180022465853538
259,18.180042482812774
260,18.18000721601815
261,18.610330741216566
262,18.18000807997651
263,18.180005419391287
264,0.1390841449735969
265,0.1543523327662923
266,0.0
267,0.0
268,0.09965830377510192
269,0.18297408855516543
595,71093.78665478587
617,59704192.29570205
639,29106983.258656954
641,2507221.1828020459
643,0.0
645,36639335.015103299
647,30239107.6239915
648,67513601.2792688
690,6569793.67720549
692,0.0
694,3524730.0354959315
696,44245511.47161913
698,42658592.30787513
700,9833427.516610189
721,4561823.570410369
722,1586868.1485596379
723,750477.7605017049
724,6323558.622847754
725,6130215.8949700989
726,66598162.98350723
789,1956258.0835662778
2,1, 3, 1, 0,23, 0.00,60.00,Sunday
258,16.21187638440449
259,16.050751010852897
260,16.134080309656427
261,18.54110885389213
262,15.508407829266588
263,15.859358126036819
264,0.14662445055089996
265,0.1256789763558331
266,0.0
267,0.0
268,0.07690256873247044
269,0.16724978144270129
595,21501.940314861447
617,0.0
639,0.0
641,0.0
643,0.0
645,0.0
647,0.0
648,45813319.87076101
690,2414240.53371968
692,0.0
694,3472276.3456209858
696,24982452.94532313
698,26577601.478836817
700,9833427.516610189
721,4561823.570410369
722,1586868.1485596379
723,750477.7605017049
724,6323558.622847754
725,6130215.8949700989
726,46931572.81508939
789,1289040.8045120757
2,1, 3, 1, 0,24, 0.00,60.00,Sunday
258,15.338556883088624
259,15.102905746255399
260,14.954136699415168
261,18.37967951389515
262,14.423406444531727
263,14.714763219008063
264,0.13994456012454918
265,0.11153833265363684
266,0.0
267,0.0
268,0.06626926268762125
269,0.15607088340164375
595,17025.252388974313
617,0.0
639,0.0
641,0.0
643,0.0
645,0.0
647,0.0
648,33209622.543532477
690,0.0
692,0.0
694,3128445.0051005238
696,15035243.505390171
698,16561487.734965442
700,9833427.516610189
721,4561823.570410369
722,1586868.1485596379
723,750477.7605017049
724,6323558.622847754
725,6130215.8949700989
726,31199720.091318825
789,904816.9950889578
2,2, 3, 2, 0, 1, 0.00,60.00,Monday
258,15.214845134366012
259,14.690385852283617
260,14.464213245467388
261,18.126853969952536
262,14.264448914421033
263,14.54305803970846
264,0.12315617714085148
265,0.11543200649866678
266,0.0
267,0.0
268,0.07118051866960748
269,0.08139519631141308
595,16568.372987178056
617,0.0
639,0.0
641,0.0
643,0.0
645,1121082.795333759
647,0.0
648,31027074.615260625
690,0.0
692,0.0
694,2843884.347771067
696,13318193.624718015
698,14858357.984012597
700,9833427.516610189
721,4561823.570410369
722,1586868.1485596379
723,750477.7605017049
724,6323558.622847754
725,6130215.8949700989
726,28484210.284288348
789,854478.1603191361
2,2, 3, 2, 0, 2, 0.00,60.00,Monday
258,15.129484008222548
259,14.492232065601476
260,14.266404170674488
261,17.89228776818168
262,14.260001042903602
263,14.38276905051005
264,0.12084637595823764
265,0.14616883668637618
266,0.0
267,0.0
268,0.09290994912650573
269,0.10146523637545683
595,16924.11796919093
617,0.0
639,0.0
641,551878.0480135904
643,0.0
645,3082957.387402333
647,0.0
648,29998008.90565808
690,0.0
692,0.0
694,2695709.151114776
696,13264107.304575423
698,13676781.323600159
700,9833427.516610189
721,4561823.570410369
722,1586868.1485596379
723,750477.7605017049
724,6323558.622847754
725,6130215.8949700989
726,27263615.231179444
789,842002.5085922442
2,2, 3, 2, 0, 3, 0.00,60.00,Monday
258,15.04376695857194
259,14.32321324080094
260,14.259998848959168
261,17.706605211716164
262,14.2600003355949
263,14.268074594662647
264,0.14382820516134232
265,0.12623390408436059
266,0.0
267,0.0
268,0.08085561413689327
269,0.1446894935338498
595,17687.371643526618
617,0.0
639,650463.056764284
641,2180983.067745529
643,0.0
645,4119671.8340522565
647,1249926.1240997478
648,28253042.364581236
690,0.0
692,0.0
694,2435547.403327122
696,12799904.039724589
698,12340617.768288866
700,9833427.516610189
721,4561823.570410369
722,1586868.1485596379
723,750477.7605017049
724,6323558.622847754
725,6130215.8949700989
726,25492668.41733114
789,794453.9028031245
2,2, 3, 2, 0, 4, 0.00,60.00,Monday
258,14.963249813835692
259,14.260005911044582
260,14.260011016642093
261,17.563951190296384
262,14.26000189403947
263,14.260000910676875
264,0.14694695473531253
265,0.13821699951395
266,0.0
267,0.0
268,0.08928828531543265
269,0.14293274133850074
595,18997.28088294279
617,0.0
639,2689946.4298698238
641,3372011.5276209169
643,0.0
645,5137289.766810275
647,2940056.395647259
648,26572872.10874719
690,0.0
692,0.0
694,2218077.3340220779
696,12380958.219010357
698,11846983.119852599
700,9833427.516610189
721,4561823.570410369
722,1586868.1485596379
723,750477.7605017049
724,6323558.622847754
725,6130215.8949700989
726,24295147.8059722
789,769387.7387738405
2,2, 3, 2, 0, 5, 0.00,60.00,Monday
258,14.926186124622273
259,14.26000483165345
260,14.260007429280304
261,17.456285480948567
262,14.260002407455229
263,14.260001703101205
264,0.15727232512072854
265,0.13123675434605276
266,0.0
267,0.0
268,0.08500734473591057
269,0.1967864506488862
595,19826.958873810603
617,0.0
639,3068773.7887448377
641,3732606.43145626
643,0.0
645,5597928.669410316
647,4934095.856669853
648,26157464.91157071
690,0.0
692,0.0
694,2149377.9608377015
696,12380228.57829587
698,11846411.908651116
700,9833427.516610189
721,4561823.570410369
722,1586868.1485596379
723,750477.7605017049
724,6323558.622847754
725,6130215.8949700989
726,24076933.453220365
789,780342.2323167949
2,2, 3, 2, 0, 6, 0.00,60.00,Monday
258,14.858472628003108
259,14.260003749157662
260,14.260001351163098
261,17.375954956583429
262,14.260001686124318
263,14.260001674060169
264,0.19089466438569456
265,0.17206956934245216
266,0.0
267,0.0
268,0.11124634165126493
269,0.3235727107023326
595,21093.95392766053
617,0.0
639,3790393.082007671
641,3981705.451674534
643,0.0
645,6400291.677321768
647,8136525.382019345
648,25368041.932848738
690,0.0
692,0.0
694,2097914.1970210729
696,12379090.177637037
698,11844969.412511286
700,9833427.516610189
721,4561823.570410369
722,1586868.1485596379
723,750477.7605017049
724,6323558.622847754
725,6130215.8949700989
726,23661791.17228362
789,781155.8603712237
2,2, 3, 2, 0, 7, 0.00,60.00,Monday
258,14.821395136925532
259,14.260008776152464
260,14.260012544301315
261,17.314773921757636
262,14.260002899786779
263,14.260002523114096
264,0.19088610638756288
265,0.19939373562132818
266,0.0
267,0.0
268,0.12886173522701595
269,0.3019440533682449
595,21473.75630596154
617,0.0
639,4330307.5242426409
641,4164117.2542032159
643,0.0
645,7028081.099005746
647,8309770.980148316
648,24910457.599990056
690,0.0
692,0.0
694,2059153.6497418334
696,12379076.766491268
698,11845004.352317352
700,9833427.516610189
721,4561823.570410369
722,1586868.1485596379
723,750477.7605017049
724,6323558.622847754
725,6130215.8949700989
726,23496724.001237465
789,790150.3287244057
2,2, 3, 2, 0, 8, 0.00,60.00,Monday
258,14.932528007205628
259,14.260015647027018
260,14.26003796823288
261,17.268652902954164
262,14.260006616585084
263,14.2600033087951
264,0.1798346105753213
265,0.20585703212842353
266,0.0
267,0.0
268,0.13337223221843826
269,0.26805514846915726
595,20408.59430709095
617,0.0
639,3813453.094372593
641,4283272.833977126
643,0.0
645,6427988.550063303
647,4715311.494697994
648,26015529.081537259
690,0.0
692,0.0
694,2029255.0555683056
696,12380254.9677629
698,11846050.487034338
700,9833427.516610189
721,4561823.570410369
722,1586868.1485596379
723,750477.7605017049
724,6323558.622847754
725,6130215.8949700989
726,24197932.600777259
789,846609.4177394055
2,2, 3, 2, 0, 9, 0.00,60.00,Monday
258,17.955938878911817
259,17.775678928807005
260,16.35478854768324
261,17.345881741658553
262,17.562394882351179
263,17.98408345968336
264,0.19019554166848455
265,0.293475431798111
266,0.0
267,0.0
268,0.18873554889616096
269,0.27510936960116658
595,86572.20597113838
617,68726234.10468534
639,42538620.53232987
641,5961534.261885291
643,147299.11466093624
645,51713126.469286907
647,49409503.782574128
648,61215046.59515736
690,1241725.9241078955
692,0.0
694,2212758.7713915386
696,36992077.535855498
698,38873391.90471337
700,9833427.516610189
721,4561823.570410369
722,1586868.1485596377
723,750477.7605017049
724,6323558.622847754
725,6130215.8949700989
726,61841180.17228162
789,2136071.544494347
2,2, 3, 2, 0,10, 0.00,60.00,Monday
258,18.180007190710538
259,18.1799886615509
260,17.83842931424594
261,17.601573636833075
262,18.180008721076413
263,18.38410863184217
264,0.2307589327866316
265,0.29841433153758809
266,0.0
267,0.0
268,0.19291600262953868
269,0.4288646375582408
595,53008.96870214514
617,15719965.902419353
639,29716470.97932656
641,5408553.219952506
643,147299.11466093624
645,38162186.90368484
647,3425165.2567773119
648,67485710.09725626
690,6699650.620903571
692,0.0
694,2891765.0863659668
696,44221566.78765491
698,43889509.591119389
700,9833427.516610189
721,4561823.570410369
722,1586868.1485596379
723,750477.7605017049
724,6323558.622847754
725,6130215.8949700989
726,66598162.983507249
789,2468111.453494022
2,2, 3, 2, 0,11, 0.00,60.00,Monday
258,18.180004867393035
259,18.18004298404602
260,18.18000269063301
261,18.00157148711284
262,18.18001160301448
263,19.379703527081256
264,0.19388956495445648
265,0.2074367427010532
266,0.0
267,0.0
268,0.13404191491750357
269,0.2754114409911131
595,46174.20606838245
617,9972903.56920217
639,24282915.352503085
641,1240590.609696644
643,132569.20319484263
645,32029526.87553871
647,0.0
648,71547187.95169106
690,14143390.13106253
692,1087994.561971151
694,3875997.856515988
696,46646061.32990638
698,53479139.2879577
700,9833427.516610189
721,4561823.570410369
722,1586868.1485596379
723,750477.7605017049
724,6323558.622847754
725,6130215.8949700989
726,66598162.98350723
789,2784101.7386344166
2,2, 3, 2, 0,12, 0.00,60.00,Monday
258,18.18000778136926
259,18.18001764516011
260,18.196377488385346
261,18.399757475815126
262,18.18001014240702
263,19.62898891788926
264,0.12064891754664545
265,0.1498510406943828
266,0.0
267,0.0
268,0.0971039054495747
269,0.12728840468284334
595,43504.93718731084
617,16418264.236615543
639,17381110.072770943
641,84392.64158379866
643,0.0
645,23859394.898593908
647,0.0
648,75616826.04593709
690,21607455.052014743
692,4743234.170758177
694,4864784.6058867969
696,49074208.12185434
698,58093690.48610658
700,9833427.516610189
721,4561823.570410369
722,1586868.1485596379
723,750477.7605017049
724,6323558.622847754
725,6130215.8949700989
726,66598162.98350723
789,3090077.5273478229
2,2, 3, 2, 0,13, 0.00,60.00,Monday
258,18.180011849808826
259,18.180056405833655
260,18.33476896987525
261,18.752713106678223
262,18.180019554926667
263,19.419137574624459
264,0.10451736797003955
265,0.15666639743085543
266,0.0
267,0.0
268,0.10163954177161276
269,0.14888336911906764
595,40372.38196231792
617,13712055.52538465
639,13443846.03870526
641,0.0
643,0.0
645,19101707.31389457
647,0.0
648,79024150.94251228
690,27855751.403463484
692,7879065.630042952
694,5706141.180394755
696,51106419.21676901
698,58594936.36388406
700,9833427.516610189
721,4561823.570410369
722,1586868.1485596379
723,750477.7605017049
724,6323558.622847754
725,6130215.8949700989
726,66598162.98350723
789,3298431.688953052
2,2, 3, 2, 0,14, 0.00,60.00,Monday
258,18.18001103868581
259,18.180039360428699
260,18.481363309593456
261,19.01877401017148
262,18.18002547838622
263,19.194183373851197
264,0.15718742791675184
265,0.18244308216170003
266,0.0
267,0.0
268,0.11892147218492873
269,0.2410193905409662
595,38434.15752710837
617,9603912.71838723
639,12136816.353714267
641,0.0
643,0.0
645,17516984.412023479
647,0.0
648,81059320.9345676
690,31620579.623011274
692,9772062.982674053
694,6247577.909385298
696,52319892.27259995
698,58162725.50547752
700,9833427.516610189
721,4561823.570410369
722,1586868.1485596379
723,750477.7605017049
724,6323558.622847754
725,6130215.8949700989
726,66598162.983507249
789,3320719.1160581505
2,2, 3, 2, 0,15, 0.00,60.00,Monday
258,18.18000790339663
259,18.180004568469003
260,18.600575850348667
261,19.203102954955328
262,18.180012820370267
263,18.81743833043337
264,0.22346366400826177
265,0.25819469059346858
266,0.0
267,0.0
268,0.1674237653330946