Program Version,EnergyPlus, Version 8.8.0-7c3bbe4830, YMD=2019.08.09 15:35
1,5,Environment Title[],Latitude[deg],Longitude[deg],Time Zone[],Elevation[m]
2,6,Day of Simulation[],Month[],Day of Month[],DST Indicator[1=yes 0=no],Hour[],StartMinute[],EndMinute[],DayType
3,3,Cumulative Day of Simulation[],Month[],Day of Month[],DST Indicator[1=yes 0=no],DayType  ! When Daily Report Variables Requested
4,2,Cumulative Days of Simulation[],Month[]  ! When Monthly Report Variables Requested
5,1,Cumulative Days of Simulation[] ! When Run Period Report Variables Requested
258,1,THERMAL ZONE 1 THERMAL ZONE,Zone Mean Air Temperature [C] !Hourly
259,1,THERMAL ZONE 2 THERMAL ZONE,Zone Mean Air Temperature [C] !Hourly
260,1,THERMAL ZONE 3 THERMAL ZONE,Zone Mean Air Temperature [C] !Hourly
261,1,THERMAL ZONE 4 THERMAL ZONE,Zone Mean Air Temperature [C] !Hourly
262,1,THERMAL ZONE 5 THERMAL ZONE,Zone Mean Air Temperature [C] !Hourly
263,1,THERMAL ZONE 6 THERMAL ZONE,Zone Mean Air Temperature [C] !Hourly
264,1,THERMAL ZONE 1 THERMAL ZONE,AFN Zone Infiltration Air Change Rate [ach] !Hourly
265,1,THERMAL ZONE 2 THERMAL ZONE,AFN Zone Infiltration Air Change Rate [ach] !Hourly
266,1,THERMAL ZONE 3 THERMAL ZONE,AFN Zone Infiltration Air Change Rate [ach] !Hourly
267,1,THERMAL ZONE 4 THERMAL ZONE,AFN Zone Infiltration Air Change Rate [ach] !Hourly
268,1,THERMAL ZONE 5 THERMAL ZONE,AFN Zone Infiltration Air Change Rate [ach] !Hourly
269,1,THERMAL ZONE 6 THERMAL ZONE,AFN Zone Infiltration Air Change Rate [ach] !Hourly
595,1,Whole Building,Facility Total HVAC Electric Demand Power [W] !Hourly
617,1,CV ELEC RHT COIL,Heating Coil Electric Energy [J] !Hourly
639,1,CV ELEC RHT COIL 1,Heating Coil Electric Energy [J] !Hourly
641,1,CV ELEC RHT COIL 2,Heating Coil Electric Energy [J] !Hourly
643,1,CV ELEC RHT COIL 3,Heating Coil Electric Energy [J] !Hourly
645,1,CV ELEC RHT COIL 4,Heating Coil Electric Energy [J] !Hourly
647,1,CV ELEC RHT COIL 5,Heating Coil Electric Energy [J] !Hourly
648,1,COIL COOLING WATER 1,Cooling Coil Total Cooling Energy [J] !Hourly
690,1,COIL COOLING WATER 2,Cooling Coil Total Cooling Energy [J] !Hourly
692,1,COIL COOLING WATER 3,Cooling Coil Total Cooling Energy [J] !Hourly
694,1,COIL COOLING WATER 4,Cooling Coil Total Cooling Energy [J] !Hourly
696,1,COIL COOLING WATER 5,Cooling Coil Total Cooling Energy [J] !Hourly
698,1,COIL COOLING WATER 6,Cooling Coil Total Cooling Energy [J] !Hourly
700,1,FAN VARIABLE VOLUME 1,Fan Electric Energy [J] !Hourly
721,1,FAN VARIABLE VOLUME 2,Fan Electric Energy [J] !Hourly
722,1,FAN VARIABLE VOLUME 3,Fan Electric Energy [J] !Hourly
723,1,FAN VARIABLE VOLUME 4,Fan Electric Energy [J] !Hourly
724,1,FAN VARIABLE VOLUME 5,Fan Electric Energy [J] !Hourly
725,1,FAN VARIABLE VOLUME 6,Fan Electric Energy [J] !Hourly
726,1,CHILLER - WATER COOLED,Chiller Electric Energy [J] !Hourly
789,1,PUMP VARIABLE SPEED 1,Pump Electric Energy [J] !Hourly
End of Data Dictionary
1,RUN PERIOD 1,  33.63, -84.43,  -5.00, 308.00
2,1, 1, 1, 0, 1, 0.00,60.00,Sunday
258,14.493768514076522
259,12.082907622615887
260,12.240875280439749
261,17.203468592314274
262,13.594497253591659
263,13.29847823705585
264,0.18064811438025578
265,0.14383616468239686
266,0.0
267,0.0
268,0.09061019033640173
269,0.36646810683505889
595,11964.472016724834
617,0.0
639,0.0
641,0.0
643,0.0
645,0.0
647,0.0
648,18495694.972768278
690,247914.7706792691
692,11344.88255314513
694,1585317.055266292
696,5947073.494767206
698,4138839.0802152629
700,9833427.516610189
721,4561823.570410369
722,1586868.1485596379
723,750477.7605017049
724,6323558.622847754
725,6130215.8949700989
726,13581079.99362244
789,304647.75268720966
2,1, 1, 1, 0, 2, 0.00,60.00,Sunday
258,14.945741340572685
259,14.4195632648805
260,13.996350338595445
261,17.07888360273899
262,13.833113535378982
263,13.839406020348062
264,0.11996091136902539
265,0.1158999800183637
266,0.0
267,0.0
268,0.0821337397331273
269,0.44478046427558778
595,18108.44304414794
617,0.0
639,0.0
641,0.0
643,0.0
645,0.0
647,0.0
648,33833097.476618
690,6433234.761727156
692,940288.5328579495
694,3298393.857213398
696,13664695.477063397
698,13195552.51665534
700,9833427.516610189
721,4561823.570410369
722,1586868.1485596379
723,750477.7605017049
724,6323558.622847754
725,6130215.8949700989
726,35156929.992821928
789,847093.4522109132
2,1, 1, 1, 0, 3, 0.00,60.00,Sunday
258,15.030955647160394
259,14.66952593648343
260,14.302613152420685
261,17.056101446339864
262,13.884516508779118
263,13.956284725935614
264,0.12053070752045296
265,0.1020598134065358
266,0.0
267,0.0
268,0.07518020523202061
269,0.3888040555534692
595,18208.417997018216
617,0.0
639,0.0
641,0.0
643,0.0
645,0.0
647,0.0
648,34875393.67910134
690,6866695.775464896
692,873071.8336128964
694,3269529.029041178
696,14048792.601887348
698,14099478.05365848
700,9833427.516610189
721,4561823.570410369
722,1586868.1485596379
723,750477.7605017049
724,6323558.622847754
725,6130215.8949700989
726,35090756.61918244
789,1273176.6561834005
2,1, 1, 1, 0, 4, 0.00,60.00,Sunday
258,15.060336775705903
259,14.74910849002834
260,14.392652049779429
261,17.0737189834416
262,13.897624992151885
263,13.956921065902307
264,0.07700104993775769
265,0.05999932325868712
266,0.0
267,0.0
268,0.05142564897125591
269,0.3442230053015217
595,16927.040022250065
617,0.0
639,0.0
641,0.0
643,0.0
645,0.0
647,0.0
648,33863943.49522412
690,4553305.581913696
692,16924.056906438633
694,3036312.768424323
696,13349540.565951992
698,13318444.776327927
700,9833427.516610189
721,4561823.570410369
722,1586868.1485596379
723,750477.7605017049
724,6323558.622847754
725,6130215.8949700989
726,30630540.60808173
789,1120431.958118742
2,1, 1, 1, 0, 5, 0.00,60.00,Sunday
258,15.107762363407892
259,14.81163818513809
260,14.358103553014269
261,17.096568961655558
262,13.910307317952448
263,13.958362620065662
264,0.04448821986868473
265,0.03676154545079824
266,0.0
267,0.0
268,0.039069816205736528
269,0.3417843384468947
595,16717.597840943323
617,0.0
639,0.0
641,0.0
643,0.0
645,0.0
647,0.0
648,33862105.15727417
690,3609533.996435868
692,0.0
694,2946114.775595595
696,13103503.859467628
698,12991259.912906569
700,9833427.516610189
721,4561823.570410369
722,1586868.1485596379
723,750477.7605017049
724,6323558.622847754
725,6130215.8949700989
726,29974237.026544706
789,1022743.6869515244
2,1, 1, 1, 0, 6, 0.00,60.00,Sunday
258,15.117806921568413
259,14.838361161893549
260,14.308739216244675
261,17.11733050245486
262,13.914191703086909
263,13.942572046440893
264,0.039705180498761028
265,0.02725174018931321
266,0.0
267,0.0
268,0.033739810063672038
269,0.3440251833665196
595,16292.818033518222
617,0.0
639,0.0
641,0.0
643,0.0
645,0.0
647,0.0
648,33215988.835731176
690,2237723.7868887914
692,0.0
694,2818437.470999669
696,12673147.971838324
698,12422446.38611331
700,9833427.516610189
721,4561823.570410369
722,1586868.1485596379
723,750477.7605017049
724,6323558.622847754
725,6130215.8949700989
726,28539020.802370799
789,928752.6043950662
2,1, 1, 1, 0, 7, 0.00,60.00,Sunday
258,15.116861240376896
259,14.855231018144228
260,14.181121387158163
261,17.133172201081174
262,13.913730119405419
263,13.921440854006903
264,0.04500541442519048
265,0.022709741370599249
266,0.0
267,0.0
268,0.03202835613243064
269,0.34218129659004417
595,15894.508265515067
617,0.0
639,0.0
641,0.0
643,0.0
645,0.0
647,0.0
648,32529776.363455789
690,985806.318949199
692,0.0
694,2702219.604761622
696,12257142.185877696
698,11857147.575696474
700,9833427.516610189
721,4561823.570410369
722,1586868.1485596379
723,750477.7605017049
724,6323558.622847754
725,6130215.8949700989
726,27189652.31667291
789,844205.9252815856
2,1, 1, 1, 0, 8, 0.00,60.00,Sunday
258,15.089633782684498
259,14.84058105195192
260,14.17253431808518
261,17.142762261556319
262,13.906664347878694
263,13.903181456630758
264,0.08907995407410155
265,0.06334721318741132
266,0.0
267,0.0
268,0.05252366262173001
269,0.38293905904295058
595,15841.809047715873
617,0.0
639,0.0
641,0.0
643,0.0
645,0.0
647,0.0
648,32206486.463393887
690,956123.9974406815
692,0.0
694,2709081.9486759488
696,12200671.26257769
698,11709194.712498675
700,9833427.516610189
721,4561823.570410369
722,1586868.1485596379
723,750477.7605017049
724,6323558.622847754
725,6130215.8949700989
726,27030267.1336302
789,813873.9242471854
2,1, 1, 1, 0, 9, 0.00,60.00,Sunday
258,15.24179828171854
259,14.962014517635069
260,16.028195256194466
261,17.210055003087278
262,14.797291900657897
263,15.047922601883539
264,0.11225468520280613
265,0.08451120797855631
266,0.0
267,0.0
268,0.05769231740913899
269,0.4105256158423566
595,18258.749698992913
617,0.0
639,0.0
641,0.0
643,0.0
645,0.0
647,0.0
648,34599732.14978593
690,2601486.9644120826
692,0.0
694,2888852.136273228
696,18975376.439367434
698,19992264.053613906
700,9833427.516610189
721,4561823.570410369
722,1586868.1485596379
723,750477.7605017049
724,6323558.622847754
725,6130215.8949700989
726,35516570.5945957
789,1028556.8078790361
2,1, 1, 1, 0,10, 0.00,60.00,Sunday
258,15.62751785275483
259,15.261741810306484
260,17.113689146606274
261,17.33268600214425
262,15.340273737029069
263,15.833737990575078
264,0.08288131938678099
265,0.06634896971795365
266,0.0
267,0.0
268,0.04338439196423511
269,0.41986632316861585
595,20977.033743185788
617,0.0
639,0.0
641,0.0
643,0.0
645,0.0
647,0.0
648,40358941.52300422
690,5667980.524346415
692,27596.346755129038
694,3209540.7008139037
696,24212306.161178847
698,26922399.051110936
700,9833427.516610189
721,4561823.570410369
722,1586868.1485596379
723,750477.7605017049
724,6323558.622847754
725,6130215.8949700989
726,45105720.1036785
789,1225229.857890593
2,1, 1, 1, 0,11, 0.00,60.00,Sunday
258,15.866948166870174
259,15.522507148377155
260,17.479527667167099
261,17.52654065169505
262,15.591216952368337
263,16.13989092411978
264,0.08641443695946612
265,0.06889819694690225
266,0.0
267,0.0
268,0.045299898048854477
269,0.4403121895512322
595,22825.52877607645
617,0.0
639,0.0
641,0.0
643,0.0
645,0.0
647,0.0
648,44636046.012310188
690,8704417.233591453
692,938280.2655864867
694,3578728.435682755
696,26980495.485614584
698,30064349.829744549
700,9833427.516610189
721,4561823.570410369
722,1586868.1485596379
723,750477.7605017049
724,6323558.622847754
725,6130215.8949700989
726,51664906.57103534
789,1320625.5089401389
2,1, 1, 1, 0,12, 0.00,60.00,Sunday
258,16.208366365934073
259,15.87500290246445
260,17.68337767519666
261,17.73577146110705
262,15.90111514326619
263,16.619655203616938
264,0.1416816032460151
265,0.12489108870267826
266,0.0
267,0.0
268,0.08188892093046671
269,0.3736609950252034
595,25457.869582720294
617,0.0
639,0.0
641,0.0
643,0.0
645,0.0
647,0.0
648,50664315.696199979
690,13314899.962046246
692,2901323.0835036167
694,4098050.4835997216
696,30580491.37221277
698,34731827.35202351
700,9833427.516610189
721,4561823.570410369
722,1586868.1485596379
723,750477.7605017049
724,6323558.622847754
725,6130215.8949700989
726,61013748.38856823
789,1448210.5953250617
2,1, 1, 1, 0,13, 0.00,60.00,Sunday
258,16.33478872939498
259,16.018451914345144
260,17.854972163692744
261,17.957088915180039
262,16.037824709270745
263,16.944040586445614
264,0.14310934229580736
265,0.13460679803943194
266,0.0
267,0.0
268,0.08814000058512851
269,0.17081986630281049
595,27029.97093973826
617,0.0
639,0.0
641,0.0
643,0.0
645,0.0
647,0.0
648,53669958.84832518
690,19308134.559542639
692,5733134.158289712
694,4589196.298605104
696,32516596.941429404
698,38071453.40841073
700,9833427.516610189
721,4561823.570410369
722,1586868.1485596379
723,750477.7605017049
724,6323558.622847754
725,6130215.8949700989
726,66598162.983507249
789,1523360.885650745
2,1, 1, 1, 0,14, 0.00,60.00,Sunday
258,16.310101824916648
259,16.02172205038827
260,17.98241014498037
261,18.14484103781391
262,16.04873105379809
263,16.932380311515077
264,0.12330304906337483
265,0.08658773640951971
266,0.0
267,0.0
268,0.05595899570298431
269,0.2190011005436415
595,26967.891358980403
617,0.0
639,0.0
641,0.0
643,0.0
645,0.0
647,0.0
648,55830269.95369128
690,17022920.327650619
692,4384731.009604338
694,4826676.359089289
696,31766679.328146604
698,38573902.23864101
700,9833427.516610189
721,4561823.570410369
722,1586868.1485596379
723,750477.7605017049
724,6323558.622847754
725,6130215.8949700989
726,66417715.17014827
789,1480322.208281428
2,1, 1, 1, 0,15, 0.00,60.00,Sunday
258,16.28012511434165
259,16.026180164211156
260,18.06614176867125
261,18.279387741675217
262,16.061511814252385
263,16.842440841408157
264,0.13074968168573515
265,0.06248471174862321
266,0.0
267,0.0
268,0.04093665384620091
269,0.27197148685069569
595,26549.158447218088
617,0.0
639,0.0
641,0.0
643,0.0
645,0.0
647,0.0
648,53422725.97871099
690,13099682.752485782
692,2418873.765530591
694,4667834.467294069
696,32655509.458975886
698,37057763.016005579
700,9833427.516610189
721,4561823.570410369
722,1586868.1485596379
723,750477.7605017049
724,6323558.622847754
725,6130215.8949700989
726,64992844.78221485
789,1397754.1138705258
2,1, 1, 1, 0,16, 0.00,60.00,Sunday
258,16.02667504350682
259,15.73111666572611
260,17.716197662486999
261,18.3743033840481
262,15.907579106807518
263,16.498539815064978
264,0.23793144009421977
265,0.19229044055650117
266,0.0
267,0.0
268,0.125835422111518
269,0.4903234120499131
595,22164.831188301287
617,0.0
639,0.0
641,0.0
643,0.0
645,0.0
647,0.0
648,42746889.88277354
690,3052274.0224052986
692,104919.3968323711
694,3363187.001598654
696,27044892.671388799
698,30771801.113123694
700,9833427.516610189
721,4561823.570410369
722,1586868.1485596379
723,750477.7605017049
724,6323558.622847754
725,6130215.8949700989
726,49507536.89224413
789,1099483.8717407534
2,1, 1, 1, 0,17, 0.00,60.00,Sunday
258,15.427624927428985
259,14.295403048277166
260,16.449360909864408
261,18.41090703270715
262,15.494058082625774
263,15.602842136716499
264,0.32452433639294078
265,0.30184378061171276
266,0.0
267,0.0
268,0.20365590595823836
269,0.676513257282185
595,17774.609976532687
617,0.0
639,0.0
641,0.0
643,0.0
645,0.0
647,0.0
648,28847627.095153575
690,0.0
692,0.0
694,2129501.2648448219
696,19860034.380829295
698,19885402.52872259
700,9833427.516610189
721,4561823.570410369
722,1586868.1485596379
723,750477.7605017049
724,6323558.622847754
725,6130215.8949700989
726,33908908.93144317
789,893315.470174737
2,1, 1, 1, 0,18, 0.00,60.00,Sunday
258,15.022676664356365
259,13.191510679254666
260,15.719089650359006
261,18.34829109781285
262,15.192092792924579
263,15.175111417715149
264,0.31716219681795046
265,0.28991850714224867
266,0.0
267,0.0
268,0.2007986287598394
269,0.631380911384803
595,15543.965599685875
617,0.0
639,0.0
641,0.0
643,0.0
645,0.0
647,0.0
648,21394019.302861357
690,0.0
692,0.0
694,1614096.800969383
696,15942868.88134922
698,15089591.86952515
700,9833427.516610189
721,4561823.570410369
722,1586868.1485596379
723,750477.7605017049
724,6323558.622847754
725,6130215.8949700989
726,25929008.884691564
789,842895.7602778495
2,1, 1, 1, 0,19, 0.00,60.00,Sunday
258,14.72742491992366
259,12.56796200249737
260,15.34681600863748
261,18.15039169434397
262,14.961632032748743
263,14.91270404122314
264,0.31176099925351738
265,0.31643700292363066
266,0.0
267,0.0
268,0.21915684600262715
269,0.6112712786542585
595,14169.414319659196
617,0.0
639,0.0
641,0.0
643,0.0
645,0.0
647,0.0
648,17286509.699976528
690,0.0
692,0.0
694,1386416.3560155824
696,13801695.312861637
698,12731557.415680478
700,9833427.516610189
721,4561823.570410369
722,1586868.1485596379
723,750477.7605017049
724,6323558.622847754
725,6130215.8949700989
726,21020415.0580112
789,803104.9788621535
2,1, 1, 1, 0,20, 0.00,60.00,Sunday
258,14.649080373887296
259,12.290949794110209
260,15.143820238124624
261,17.96418535521604
262,14.8291648944026
263,14.879135123918815
264,0.2621355716328576
265,0.33261562349078235
266,0.0
267,0.0
268,0.22967435614184612
269,0.5278734599153983
595,13154.993060826051
617,0.0
639,0.0
641,0.0
643,0.0
645,0.0
647,0.0
648,16236900.535041197
690,0.0
692,0.0
694,1265641.5131982347
696,12751437.02907931
698,12407828.761463747
700,9833427.516610189
721,4561823.570410369
722,1586868.1485596379
723,750477.7605017049
724,6323558.622847754
725,6130215.8949700989
726,17543416.04231164
789,628187.4627623941
2,1, 1, 1, 0,21, 0.00,60.00,Sunday
258,14.643922039246652
259,12.0404985759241
260,14.913126067501029
261,17.81542962988142
262,14.749478119297658
263,14.892438890877675
264,0.22083731315350672
265,0.326027751804349
266,0.0
267,0.0
268,0.2260823788594573
269,0.4646822629646187
595,12776.326464452522
617,0.0
639,0.0
641,0.0
643,0.0
645,0.0
647,0.0
648,15453030.4041785
690,0.0
692,0.0
694,1030504.3876155035
696,11687140.661409326
698,12094345.286658923
700,9833427.516610189
721,4561823.570410369
722,1586868.1485596379
723,750477.7605017049
724,6323558.622847754
725,6130215.8949700989
726,16404535.086446472
789,403868.67168286375
2,1, 1, 1, 0,22, 0.00,60.00,Sunday
258,14.490114795909918
259,11.643098828632383
260,14.576259849322473
261,17.688980466650216
262,14.657289994792626
263,14.75016287078517
264,0.26379768000702927
265,0.32077437547712858
266,0.0
267,0.0
268,0.22440485179882695
269,0.4791169163555479
595,12357.891454078352
617,0.0
639,0.0
641,0.0
643,0.0
645,0.0
647,0.0
648,12399459.539527532
690,0.0
692,0.0
694,706029.249702122
696,10181054.256576848
698,10297770.07537494
700,9833427.516610189
721,4561823.570410369
722,1586868.1485596379
723,750477.7605017049
724,6323558.622847754
725,6130215.8949700989
726,14963514.277457489
789,338523.4433248319
2,1, 1, 1, 0,23, 0.00,60.00,Sunday
258,14.333194136377557
259,11.26839651805609
260,12.701278867598545
261,17.571419202831526
262,13.805125112858573
263,13.626499604754367
264,0.281376219623124
265,0.3022820833601098
266,0.0
267,0.0
268,0.21042275855530549
269,0.45989579139623146
595,10078.26315808483
617,0.0
639,0.0
641,0.0
643,0.0
645,0.0
647,0.0
648,9172787.014563809
690,0.0
692,0.0
694,386902.41349013798
696,3292394.694839164
698,2186360.312752952
700,9833427.516610189
721,4561823.570410369
722,1586868.1485596379
723,750477.7605017049
724,6323558.622847754
725,6130215.8949700989
726,6939562.387611847
789,155813.46759379807
2,1, 1, 1, 0,24, 0.00,60.00,Sunday
258,14.248789952756706
259,10.874764944311148
260,11.673151900693773
261,17.40075335568383
262,13.446253015198469
263,13.075207467152083
264,0.26485293378132787
265,0.2548116232273341
266,0.0
267,0.0
268,0.18080862096390214
269,0.38468363055375329
595,9004.450389863341
617,0.0
639,0.0
641,0.0
643,0.0
645,0.0
647,0.0
648,6705112.0142223839
690,0.0
692,0.0
694,57474.63723292557
696,40804.38197037049
698,0.0
700,9833427.516610189
721,4561823.570410369
722,1586868.1485596379
723,750477.7605017049
724,6323558.622847754
725,6130215.8949700989
726,3157944.4464131596
789,71705.44319511786
2,2, 1, 2, 0, 1, 0.00,60.00,Monday
258,14.210220681940687
259,10.494964833385499
260,11.155842701328784
261,17.1460029053704
262,13.222843953223057
263,12.999267043054222
264,0.22882149732076555
265,0.23145161811630578
266,0.0
267,0.0
268,0.16704009388905276
269,0.23844204044587034
595,8754.813476804182
617,0.0
639,0.0
641,0.0
643,0.0
645,0.0
647,0.0
648,4866363.037295764
690,0.0
692,0.0
694,0.0
696,0.0
698,0.0
700,9833427.516610189
721,4561823.570410369
722,1586868.1485596379
723,750477.7605017049
724,6323558.622847754
725,6130215.8949700989
726,2278816.0474397207
789,52140.95515558098
2,2, 1, 2, 0, 2, 0.00,60.00,Monday
258,14.151355984183529
259,10.195216423190633
260,10.803329316896314
261,16.893602062557599
262,12.971751330493174
263,12.872619952524812
264,0.24601803500395293
265,0.24468529516021449
266,0.0
267,0.0
268,0.17544287392486475
269,0.2933547632794729
595,8603.012760828005
617,0.0
639,0.0
641,0.0
643,0.0
645,0.0
647,0.0
648,3711158.885379317
690,0.0
692,0.0
694,0.0
696,0.0
698,0.0
700,9833427.516610189
721,4561823.570410369
722,1586868.1485596379
723,750477.7605017049
724,6323558.622847754
725,6130215.8949700989
726,1744292.444654886
789,40181.980426183894
2,2, 1, 2, 0, 3, 0.00,60.00,Monday
258,14.020217149894445
259,10.093953877745625
260,10.615483498456749
261,16.696028911406338
262,12.830169036026664
263,12.287086710534839
264,0.27005713816141638
265,0.21307465232715376
266,0.0
267,0.0
268,0.1556375155027569
269,0.421586914878774
595,8392.901633804684
617,0.0
639,0.0
641,0.0
643,0.0
645,0.0
647,0.0
648,2112934.0564410479
690,0.0
692,0.0
694,0.0
696,0.0
698,0.0
700,9833427.516610189
721,4561823.570410369
722,1586868.1485596379
723,750477.7605017049
724,6323558.622847754
725,6130215.8949700989
726,1004791.4589041395
789,23282.90889298008
2,2, 1, 2, 0, 4, 0.00,60.00,Monday
258,14.048782124764447
259,9.939458414070462
260,10.404686001118695
261,16.502162886772799
262,12.724327301984
263,12.354675624324555
264,0.22458126124363199
265,0.20681952292030196
266,0.0
267,0.0
268,0.15214657414288519
269,0.23320527441862155
595,8325.697797028228
617,0.0
639,0.0
641,0.0
643,0.0
645,0.0
647,0.0
648,1614065.7523784177
690,0.0
692,0.0
694,0.0
696,0.0
698,0.0
700,9833427.516610189
721,4561823.570410369
722,1586868.1485596379
723,750477.7605017049
724,6323558.622847754
725,6130215.8949700989
726,768261.6130728787
789,17878.942328987443
2,2, 1, 2, 0, 5, 0.00,60.00,Monday
258,14.088851119734354
259,9.676298247576084
260,10.163006646204954
261,16.313049104480297
262,12.525895232556687
263,12.500536496128495
264,0.20173450819687395
265,0.22375343025704
266,0.0
267,0.0
268,0.16299130061902446
269,0.18548734687972297
595,8302.33987208099
617,0.0
639,0.0
641,0.0
643,0.0
645,0.0
647,0.0
648,1443652.3172646689
690,0.0
692,0.0
694,0.0
696,0.0
698,0.0
700,9833427.516610189
721,4561823.570410369
722,1586868.1485596379
723,750477.7605017049
724,6323558.622847754
725,6130215.8949700989
726,686029.6218411899
789,16022.403750625652
2,2, 1, 2, 0, 6, 0.00,60.00,Monday
258,14.076630424171313
259,9.580330736175713
260,10.054221094971107
261,16.180876554191785
262,12.391735854035712
263,12.440316599202343
264,0.1886130518023984
265,0.22333981426239569
266,0.0
267,0.0
268,0.16233526374155964
269,0.17635214370415773
595,8274.762721817233
617,0.0
639,0.0
641,0.0
643,0.0
645,0.0
647,0.0
648,1240788.964718566
690,0.0
692,0.0
694,0.0
696,0.0
698,0.0
700,9833427.516610189
721,4561823.570410369
722,1586868.1485596379
723,750477.7605017049
724,6323558.622847754
725,6130215.8949700989
726,588975.6747106073
789,13798.609931684387
2,2, 1, 2, 0, 7, 0.00,60.00,Monday
258,14.121394334919185
259,9.551746542021745
260,9.977946367982245
261,16.074545378800886
262,12.350191378422857
263,12.45882961379278
264,0.17239346637163045
265,0.21600297724139889
266,0.0
267,0.0
268,0.15765717238626485
269,0.15761013814397666
595,8348.16671205351
617,0.0
639,0.0
641,0.0
643,0.0
645,0.0
647,0.0
648,1800130.0912480686
690,0.0
692,0.0
694,0.0
696,0.0
698,0.0
700,9833427.516610189
721,4561823.570410369
722,1586868.1485596379
723,750477.7605017049
724,6323558.622847754
725,6130215.8949700989
726,847123.1677796369
789,19905.481713246892
2,2, 1, 2, 0, 8, 0.00,60.00,Monday
258,14.08016439840579
259,9.496424832434937
260,9.921297380721393
261,15.989053958275875
262,12.268602021900638
263,12.409747655567595
264,0.19482399498428494
265,0.23574139546018237
266,0.0
267,0.0
268,0.16962224591324927
269,0.18526307591500208
595,8284.366458471186
617,0.0
639,0.0
641,0.0
643,0.0
645,0.0
647,0.0
648,1320489.3837784597
690,0.0
692,0.0
694,0.0
696,0.0
698,0.0
700,9833427.516610189
721,4561823.570410369
722,1586868.1485596379
723,750477.7605017049
724,6323558.622847754
725,6130215.8949700989
726,622674.487814702
789,14673.248781818986
2,2, 1, 2, 0, 9, 0.00,60.00,Monday
258,14.26239233970026
259,9.739558490237949
260,11.514581714604966
261,16.00618891184994
262,13.516496665875622
263,13.940640557711712
264,0.21218990636352326
265,0.24265812759215839
266,0.0
267,0.0
268,0.17928274315820484
269,0.2143127448292002
595,9070.15479420916
617,0.0
639,0.0
641,0.0
643,0.0
645,0.0
647,0.0
648,4019171.4859383509
690,0.0
692,0.0
694,0.0
696,939571.589402876
698,2534079.330904967
700,9833427.516610189
721,4561823.570410369
722,1586868.1485596379
723,750477.7605017049
724,6323558.622847754
725,6130215.8949700989
726,3386226.303232466
789,79959.44202075753
2,2, 1, 2, 0,10, 0.00,60.00,Monday
258,14.67494369844459
259,10.560457809789045
260,12.611661650193735
261,16.202561126844729
262,14.440927514904767
263,15.083671058265125
264,0.18065232204091084
265,0.24616389766879255
266,0.0
267,0.0
268,0.18234930823818927
269,0.17775885746115617
595,11728.27581381154
617,0.0
639,0.0
641,0.0
643,0.0
645,0.0
647,0.0
648,11552886.518675089
690,0.0
692,0.0
694,0.0
696,6803492.839490044
698,10870657.121693658
700,9833427.516610189
721,4561823.570410369
722,1586868.1485596379
723,750477.7605017049
724,6323558.622847754
725,6130215.8949700989
726,12742795.693423206
789,292625.7223985765
2,2, 1, 2, 0,11, 0.00,60.00,Monday
258,14.952410803745689
259,11.801018970086343
260,13.487714732610419
261,16.574762300600339
262,14.887885794739813
263,15.238481061742169
264,0.26734969050156839
265,0.18985795623723984
266,0.0
267,0.0
268,0.1348063147039031
269,0.45506465677756166
595,13776.697463186993
617,0.0
639,0.0
641,0.0
643,0.0
645,0.0
647,0.0
648,18323687.819009566
690,0.0
692,0.0
694,174834.39931310516
696,12175953.847592947
698,14380816.377096618
700,9833427.516610189
721,4561823.570410369
722,1586868.1485596379
723,750477.7605017049
724,6323558.622847754
725,6130215.8949700989
726,19975359.35377264
789,434379.99980078617
2,2, 1, 2, 0,12, 0.00,60.00,Monday
258,15.2728013374556
259,12.790959864583553
260,14.162732673123373
261,16.889861431125217
262,15.278057421156806
263,15.489138269344285
264,0.25837615736707705
265,0.23193078526836329
266,0.0
267,0.0
268,0.13590951169924588
269,0.46478799690336206
595,15412.389933899667
617,0.0
639,0.0
641,0.0
643,0.0
645,0.0
647,0.0
648,23811568.28360056
690,0.0
692,0.0
694,689290.2321390064
696,16349528.16483306
698,16821094.52826179
700,9833427.516610189
721,4561823.570410369
722,1586868.1485596379
723,750477.7605017049
724,6323558.622847754
725,6130215.8949700989
726,25757380.865977304
789,540851.3821617527
2,2, 1, 2, 0,13, 0.00,60.00,Monday
258,15.729971465309072
259,13.612081921268679
260,14.682792120343033
261,17.198437273426057
262,15.636294169102986
263,16.7680516410801
264,0.23587910417805275
265,0.1295240032608222
266,0.0
267,0.0
268,0.08552126729568446
269,0.4147392029290612
595,18063.059293472714
617,0.0
639,0.0
641,0.0
643,0.0
645,0.0
647,0.0
648,30506380.452609064
690,0.0
692,0.0
694,1129918.8485656714
696,19881225.854782814
698,27035453.508128354
700,9833427.516610189
721,4561823.570410369
722,1586868.1485596379
723,750477.7605017049
724,6323558.622847754
725,6130215.8949700989
726,35133887.90307784
789,706754.0395241772
2,2, 1, 2, 0,14, 0.00,60.00,Monday
258,16.004523217918366
259,14.16472697673222
260,15.284378039240229
261,17.531826701112828
262,15.730447578010999
263,17.029121737337655
264,0.2679951050102293
265,0.19905495914064373
266,0.0
267,0.0
268,0.14023069788767163
269,0.434056393441804
595,19588.040722202953
617,0.0
639,0.0
641,0.0
643,0.0
645,0.0
647,0.0
648,35833099.81572224
690,0.0
692,0.0
694,1722068.4681742504
696,21905795.364466378
698,30493492.951141616
700,9833427.516610189
721,4561823.570410369
722,1586868.1485596379
723,750477.7605017049
724,6323558.622847754
725,6130215.8949700989
726,40536305.06884367
789,794270.0171872127
2,2, 1, 2, 0,15, 0.00,60.00,Monday
258,16.080179051045353
259,14.568622820825747
260,15.739759745813524
261,17.812548015223908
262,15.85218230601006
263,16.854469696542578
264,0.1883899767202161
265,0.11960515419977791
266,0.0
267,0.0
268,0.07265878983988478
269,0.29141585326506827
595,19929.24585572208
617,0.0
639,0.0
641,0.0
643,0.0
645,0.0
647,0.0
648,37415216.23977503
690,0.0
692,0.0
694,1991666.9154621273
696,23132268.085102489
698,29593135.418735275
700,9833427.516610189
721,4561823.570410369
722,1586868.1485596379
723,750477.7605017049
724,6323558.622847754
725,6130215.8949700989
726,41747590.13879587
789,811323.4279038665
2,2, 1, 2, 0,16, 0.00,60.00,Monday
258,15.76259443676231
259,14.253107159642763
260,15.76979970550964
261,17.999527540533089
262,15.72990478138652
263,16.470326237569048
264,0.18691386652338799
265,0.11948033992187346
266,0.0
267,0.0
268,0.07089003387543749
269,0.28404129543476466
595,18878.168123150987
617,0.0
639,0.0
641,0.0
643,0.0
645,0.0
647,0.0
648,33224819.601305397
690,0.0
692,0.0
694,1982849.4920606779
696,21885499.75619119
698,26489227.416486127
700,9833427.516610189
721,4561823.570410369
722,1586868.1485596379
723,750477.7605017049
724,6323558.622847754
725,6130215.8949700989
726,38028290.30220186
789,746743.4272419426
2,2, 1, 2, 0,17, 0.00,60.00,Monday
258,15.493669839204637
259,14.052623801465682
260,15.819225406347906
261,18.08013503770149
262,15.600032604878172
263,16.069233835036195
264,0.2077170399719221
265,0.15081937439622029
266,0.0
267,0.0
268,0.09117781567819852
269,0.3139771527099459
595,17920.12247490569
617,0.0
639,0.0
641,0.0
643,0.0
645,0.0
647,0.0
648,29964453.555741237
690,0.0
692,0.0
694,2035567.3067856446
696,20880008.491019057
698,23360034.473411465
700,9833427.516610189
721,4561823.570410369
722,1586868.1485596379
723,750477.7605017049
724,6323558.622847754
725,6130215.8949700989
726,34635681.41513343
789,690387.9806272896
2,2, 1, 2, 0,18, 0.00,60.00,Monday
258,15.26192957221132
259,13.611099024355673
260,15.670718178025235
261,18.091866084523607
262,15.428366778889878
263,16.019566417294727
264,0.18343992231860332
265,0.1312431962125982
266,0.0
267,0.0
268,0.07783654945627605
269,0.21158642264807749
595,16995.991566071498
617,0.0
639,0.0
641,0.0
643,0.0
645,0.0
647,0.0
648,25957646.734342919
690,0.0
692,0.0
694,1787713.7497182813
696,18764588.639651609
698,22310610.480345858
700,9833427.516610189
721,4561823.570410369
722,1586868.1485596379
723,750477.7605017049
724,6323558.622847754
725,6130215.8949700989
726,31367674.13899189
789,631523.9849657425
2,2, 1, 2, 0,19, 0.00,60.00,Monday
258,14.99591361661255
259,13.067389248848582
260,15.34688456940271
261,17.990322644193
262,15.24410575572855
263,15.765472471053679
264,0.151589115170226
265,0.03406156651890281
266,0.0
267,0.0
268,0.050552219172703218