Program Version,EnergyPlus, Version 9.1.0-08d2e308bb, YMD=2020.02.05 01:02
1,5,Environment Title[],Latitude[deg],Longitude[deg],Time Zone[],Elevation[m]
2,8,Day of Simulation[],Month[],Day of Month[],DST Indicator[1=yes 0=no],Hour[],StartMinute[],EndMinute[],DayType
3,5,Cumulative Day of Simulation[],Month[],Day of Month[],DST Indicator[1=yes 0=no],DayType  ! When Daily Meters Requested
4,2,Cumulative Days of Simulation[],Month[]  ! When Monthly Meters Requested
5,1,Cumulative Days of Simulation[] ! When Run Period Meters Requested
6,1,Calendar Year of Simulation[] ! When Annual Meters Requested
11,9,Electricity:Facility [J] !Monthly [Value,Min,Day,Hour,Minute,Max,Day,Hour,Minute]
End of Data Dictionary
1,RUN PERIOD 1,  33.63, -84.44,  -5.00, 308.00
4,31, 1
11,8064477174.448841,9907583.662953986,30, 4,60,14321538.225499727,21,17,60
4,59, 2
11,8381952639.723192,9907583.662953988, 2, 8,60,92548512.08677459,24,17,60
4,90, 3
11,8789513491.03087,9907583.662953988, 3, 9,60,87080024.04698636,28,16,60
4,120, 4
11,9949114878.941233,9907583.662953988, 4, 4,60,106841095.53662433,14,16,60
4,151, 5
11,23362973793.26361,9907583.66295399, 1, 3,60,122842767.19033338,31,18,60
4,181, 6
11,26028278474.899606,9907583.66295399, 2, 4,60,127369035.70946658,15,17,60
4,212, 7
11,30665314964.72301,9907583.66295399, 6,24,60,128803727.88364268,12,18,60
4,243, 8
11,25922095740.66625,9907583.66295399, 1, 6,60,127077377.3002149, 5,16,60
4,273, 9
11,24417423154.85808,9907583.66295399, 7, 7,60,126761484.89297155,14,18,60
4,304,10
11,12718222448.097527,9907583.66295399, 1, 5,60,117638275.546813,10,16,60
4,334,11
11,8037071068.032921,9907583.662953988,11, 9,60,16624284.676019209, 6,18,60
4,365,12
11,8231348851.0231699,9907583.662953988, 4,24,60,15598092.138224341, 2,17,60
End of Data
 Number of Records Written=          12
