Program Version,EnergyPlus, Version 9.1.0-08d2e308bb, YMD=2020.02.05 01:00
1,5,Environment Title[],Latitude[deg],Longitude[deg],Time Zone[],Elevation[m]
2,8,Day of Simulation[],Month[],Day of Month[],DST Indicator[1=yes 0=no],Hour[],StartMinute[],EndMinute[],DayType
3,5,Cumulative Day of Simulation[],Month[],Day of Month[],DST Indicator[1=yes 0=no],DayType  ! When Daily Meters Requested
4,2,Cumulative Days of Simulation[],Month[]  ! When Monthly Meters Requested
5,1,Cumulative Days of Simulation[] ! When Run Period Meters Requested
6,1,Calendar Year of Simulation[] ! When Annual Meters Requested
11,9,Electricity:Facility [J] !Monthly [Value,Min,Day,Hour,Minute,Max,Day,Hour,Minute]
End of Data Dictionary
1,RUN PERIOD 1,  33.63, -84.44,  -5.00, 308.00
4,31, 1
11,4935798091.093279,5874305.07258523, 5, 4,60,9280992.082296687,22,19,60
4,59, 2
11,4809065922.802772,5874305.072585231, 1, 3,60,38568827.884727869,24,17,60
4,90, 3
11,5151433421.270792,5874305.072585231, 1, 5,60,33115508.130679896,28,16,60
4,120, 4
11,5506163593.70017,5874305.072585231, 1, 3,60,45487207.78309625,14,16,60
4,151, 5
11,10938557181.447464,5874305.072585231, 1, 3,60,60257154.74616486,31,17,60
4,181, 6
11,12653181795.192168,5874305.072585231, 2, 3,60,61712712.879671748,19,17,60
4,212, 7
11,14760689138.003766,5874305.072585231, 6,24,60,62494239.350805837,12,18,60
4,243, 8
11,12421287577.679442,5874305.072585231, 1, 5,60,61290719.76068327, 8,17,60
4,273, 9
11,11985182939.583115,5874305.072585231, 7, 6,60,61658580.26553888,14,17,60
4,304,10
11,6653946330.558462,5874305.072585231, 1, 5,60,55404376.18798645,10,16,60
4,334,11
11,4883244445.159053,5874305.072585231, 1, 3,60,9541480.787213678, 6,18,60
4,365,12
11,5013003347.949883,5874305.072585231, 1, 5,60,9310781.730339,30,19,60
End of Data
 Number of Records Written=          12
