Program Version,EnergyPlus, Version 9.1.0-08d2e308bb, YMD=2020.02.05 00:42
1,5,Environment Title[],Latitude[deg],Longitude[deg],Time Zone[],Elevation[m]
2,8,Day of Simulation[],Month[],Day of Month[],DST Indicator[1=yes 0=no],Hour[],StartMinute[],EndMinute[],DayType
3,5,Cumulative Day of Simulation[],Month[],Day of Month[],DST Indicator[1=yes 0=no],DayType  ! When Daily Report Variables Requested
4,2,Cumulative Days of Simulation[],Month[]  ! When Monthly Report Variables Requested
5,1,Cumulative Days of Simulation[] ! When Run Period Report Variables Requested
6,1,Calendar Year of Simulation[] ! When Annual Report Variables Requested
383,1,THERMAL ZONE 1,Zone Mean Air Temperature [C] !Hourly
384,1,THERMAL ZONE 2,Zone Mean Air Temperature [C] !Hourly
385,1,THERMAL ZONE 3,Zone Mean Air Temperature [C] !Hourly
386,1,THERMAL ZONE 4,Zone Mean Air Temperature [C] !Hourly
387,1,THERMAL ZONE 5,Zone Mean Air Temperature [C] !Hourly
388,1,THERMAL ZONE 6,Zone Mean Air Temperature [C] !Hourly
389,1,THERMAL ZONE 7,Zone Mean Air Temperature [C] !Hourly
390,1,THERMAL ZONE 8,Zone Mean Air Temperature [C] !Hourly
391,1,THERMAL ZONE 1,Zone Air System Sensible Heating Energy [J] !Hourly
452,1,THERMAL ZONE 1,Zone Air System Sensible Cooling Energy [J] !Hourly
477,1,THERMAL ZONE 2,Zone Air System Sensible Heating Energy [J] !Hourly
502,1,THERMAL ZONE 2,Zone Air System Sensible Cooling Energy [J] !Hourly
515,1,THERMAL ZONE 3,Zone Air System Sensible Heating Energy [J] !Hourly
540,1,THERMAL ZONE 3,Zone Air System Sensible Cooling Energy [J] !Hourly
553,1,THERMAL ZONE 4,Zone Air System Sensible Heating Energy [J] !Hourly
578,1,THERMAL ZONE 4,Zone Air System Sensible Cooling Energy [J] !Hourly
591,1,THERMAL ZONE 5,Zone Air System Sensible Heating Energy [J] !Hourly
616,1,THERMAL ZONE 5,Zone Air System Sensible Cooling Energy [J] !Hourly
629,1,THERMAL ZONE 6,Zone Air System Sensible Heating Energy [J] !Hourly
654,1,THERMAL ZONE 6,Zone Air System Sensible Cooling Energy [J] !Hourly
667,1,THERMAL ZONE 7,Zone Air System Sensible Heating Energy [J] !Hourly
692,1,THERMAL ZONE 7,Zone Air System Sensible Cooling Energy [J] !Hourly
705,1,THERMAL ZONE 8,Zone Air System Sensible Heating Energy [J] !Hourly
730,1,THERMAL ZONE 8,Zone Air System Sensible Cooling Energy [J] !Hourly
11,9,Electricity:Facility [J] !Monthly [Value,Min,Day,Hour,Minute,Max,Day,Hour,Minute]
End of Data Dictionary
1,RUN PERIOD 1,  33.63, -84.44,  -5.00, 308.00
2,1, 1, 1, 0, 1, 0.00,60.00,Tuesday
383,6.612257696761873
384,13.667648778502996
385,13.221474847005684
386,17.502949117216578
387,22.40293098733547
388,21.19023582347906
389,17.282024602857505
390,12.918508052436735
391,41106883.44912107
452,0.0
477,5142.633555276664
502,76592.71604066104
515,91495.54749972937
540,39702.06915890163
553,5996813.0411659539
578,0.0
591,12283514.719155169
616,0.0
629,11700822.135480205
654,0.0
667,5730017.260859291
692,0.0
705,60926.51305800503
730,7677.126288045848
2,1, 1, 1, 0, 2, 0.00,60.00,Tuesday
383,6.589099861844065
384,13.497438147360077
385,13.188545213854449
386,17.98034631292342
387,22.308959395245219
388,21.273985488004209
389,17.88946284956327
390,12.820578756547932
391,43483616.63747419
452,0.0
477,62673.80056693232
502,0.0
515,183111.5250288775
540,0.0
553,7188984.003069674
578,0.0
591,15631747.235061989
616,0.0
629,14621688.445891124
654,0.0
667,6830845.219270086
692,0.0
705,107184.45409715225
730,0.0
2,1, 1, 1, 0, 3, 0.00,60.00,Tuesday
383,6.582433144190441
384,13.114322524193092
385,12.523343385212137
386,17.999255893044656
387,21.87631776845508
388,21.004416093960736
389,17.98003550445612
390,12.654291099897704
391,42153294.49310019
452,0.0
477,102439.50534547106
502,0.0
515,327326.68991765557
540,0.0
553,4991198.312126066
578,0.0
591,10340931.311491758
616,0.0
629,9771526.063002222
654,0.0
667,4732801.325490833
692,0.0
705,100645.92017560892
730,0.0
2,1, 1, 1, 0, 4, 0.00,60.00,Tuesday
383,6.581441027885569
384,12.874595643831335
385,12.046004575405334
386,18.00003909600653
387,21.489484746023913
388,20.709029597463883
389,18.01529774327446
390,12.520848434241506
391,36733471.64742175
452,0.0
477,0.0
502,60012.06118924422
515,191569.83010146564
540,0.0
553,4094486.6697561608
578,0.0
591,8301880.059915501
616,0.0
629,7887266.783976268
654,0.0
667,3875695.6945929049
692,0.0
705,12957.253258036759
730,0.0
2,1, 1, 1, 0, 5, 0.00,60.00,Tuesday
383,6.580745634899881
384,11.896037352637324
385,10.557180520701636
386,18.000089209276838
387,21.287672182426328
388,20.60411920157133
389,18.100739499917237
390,12.025978651068032
391,15924483.038190064
452,0.0
477,0.0
502,668788.2747284278
515,0.0
540,441224.205439104
553,3713845.3596649405
578,0.0
591,7458156.129649961
616,0.0
629,7076406.12749106
654,0.0
667,3496308.36678404
692,0.0
705,0.0
730,325527.68680704178
2,1, 1, 1, 0, 6, 0.00,60.00,Tuesday
383,6.580425538382632
384,11.984227910398216
385,10.79095133333904
386,18.00015645888248
387,21.168064627790949
388,20.54473556624707
389,18.152975788741395
390,12.046283599197125
391,25174336.586635196
452,0.0
477,0.0
502,311933.60818784
515,0.0
540,20296.567875376648
553,3510592.7985718084
578,0.0
591,7014609.087089799
616,0.0
629,6645227.463352426
654,0.0
667,3292279.6135779616
692,0.0
705,0.0
730,152003.42756499788
2,1, 1, 1, 0, 7, 0.00,60.00,Tuesday
383,6.580123617291389
384,13.884236655476116
385,13.310771743734217
386,18.00009533408155
387,21.150058430910499
388,20.567384744872436
389,18.195652722603879
390,13.067632291249478
391,69599209.4927404
452,0.0
477,1035392.5116292914
502,0.0
515,1546234.2510318135
540,0.0
553,3427338.887047054
578,0.0
591,6814686.940632353
616,0.0
629,6443743.23873462
654,0.0
667,3204014.6745012688
692,0.0
705,574985.835768097
730,0.0
2,1, 1, 1, 0, 8, 0.00,60.00,Tuesday
383,6.580356914020117
384,13.400676346536925
385,12.413823806070474
386,18.000198452955254
387,21.169410482638928
388,20.615933294955263
389,18.22188664253862
390,12.889040188616388
391,54860295.70306492
452,0.0
477,552183.9263361099
502,0.0
515,1046670.0612536112
540,0.0
553,3391805.0537748637
578,0.0
591,6713603.237260895
616,0.0
629,6337304.256812312
654,0.0
667,3164608.2039550619
692,0.0
705,315425.65665355886
730,0.0
2,1, 1, 1, 0, 9, 0.00,60.00,Tuesday
383,6.580397180548215
384,13.46132811991084
385,12.420731880413899
386,14.845955134021012
387,15.617464555052582
388,15.42909495505063
389,15.205652095163594
390,12.92862376236845
391,50668803.63509796
452,0.0
477,365668.7478687081
502,0.0
515,819297.6076904235
540,0.0
553,66563.54000176006
578,139641.91247976543
591,19693.102939401106
616,656810.399391375
629,34819.31613112982
654,509028.2466120833
667,44919.11756875755
692,193221.8623113652
705,231233.66972421204
730,0.0
2,1, 1, 1, 0,10, 0.00,60.00,Tuesday
383,6.580513568909833
384,14.474394543271183
385,13.823335190843988
386,13.78154948889691
387,13.681790336455482
388,13.533997511993413
389,14.134466577793339
390,13.528166959224319
391,76032261.2502611
452,0.0
477,1152371.1868550387
502,0.0
515,1725125.074091094
540,0.0
553,0.0
578,240162.99111751523
591,0.0
616,548475.9247216007
629,0.0
654,415827.2917686853
667,0.0
692,305106.3143995494
705,644213.861222025
730,0.0
2,1, 1, 1, 0,11, 0.00,60.00,Tuesday
383,6.580537235230642
384,13.849382479675505
385,12.67384808058618
386,12.850912965660215
387,12.383691638646154
388,12.296519275135763
389,13.173118983450568
390,13.229697436770599
391,54652211.700626399
452,0.0
477,432221.1427945157
502,0.0
515,950696.341452068
540,0.0
553,0.0
578,253596.7608279842
591,0.0
616,366962.0474441334
629,1418.2880904516244
654,285816.40508792959
667,0.0
692,311082.431374157
705,272148.2470395517
730,0.0
2,1, 1, 1, 0,12, 0.00,60.00,Tuesday
383,6.580636514446151
384,14.164512260219065
385,13.117739929450238
386,12.625593803946137
387,11.689950722298758
388,11.415501978109761
389,12.71339875347618
390,13.128309088919762
391,46273475.99159944
452,0.0
477,10878.676889361668
502,72.38188653512907
515,355474.15510315939
540,0.0
553,0.0
578,364012.6392948156
591,0.0
616,371368.9498636235
629,0.0
654,189488.5732875149
667,0.0
692,364168.8310960357
705,124498.14026754291
730,0.0
2,1, 1, 1, 0,13, 0.00,60.00,Tuesday
383,6.5808002875030049
384,14.653797278620914
385,13.668110278304175
386,12.210608835625554
387,11.102277705184996
388,10.85240258133881
389,12.219529768112178
390,13.489267288737845
391,60102468.497728858
452,0.0
477,455000.43355428185
502,0.0
515,918774.270404832
540,0.0
553,0.0
578,343185.9770324327
591,0.0
616,217480.49935369017
629,18786.731349835827
654,82682.63324471508
667,0.0
692,327098.990056811
705,345534.2867998491
730,0.0
2,1, 1, 1, 0,14, 0.00,60.00,Tuesday
383,6.580613048634384
384,14.601771811314887
385,13.5107206467787
386,11.999934772108102
387,10.714409851524437
388,10.424788311024498
389,11.929402366910822
390,13.47559091723548
391,54176650.54927497
452,0.0
477,224955.4664385293
502,0.0
515,651157.361564472
540,0.0
553,0.0
578,362450.75554476128
591,0.0
616,162265.9580570297
629,46663.24556408863
654,39853.80193556575
667,0.0
692,327886.66216946535
705,234307.4431800702
730,0.0
2,1, 1, 1, 0,15, 0.00,60.00,Tuesday
383,6.580698481113069
384,13.800697027622464
385,12.295409414741189
386,11.818212690077559
387,10.37369341136893
388,10.06390690390373
389,11.698229388812412
390,13.033990604281634
391,30631344.385070355
452,0.0
477,0.0
502,540152.4575175481
515,0.0
540,218169.34635432857
553,0.0
578,391102.9561019169
591,0.0
616,141425.90407064919
629,40061.037216692624
654,3831.174438775406
667,0.0
692,344161.6468640206
705,0.0
730,162325.20046468327
2,1, 1, 1, 0,16, 0.00,60.00,Tuesday
383,6.580673329624119
384,12.916614078148971
385,11.31235187644243
386,11.74737365088318
387,10.15728973805428
388,9.777615570665363
389,11.607792044513936
390,12.490558571320623
391,10843944.239285669
452,0.0
477,0.0
502,1130801.1424253886
515,0.0
540,961170.2224380912
553,0.0
578,418828.2833591162
591,0.0
616,126066.74992427853
629,86980.13813668929
654,0.0
667,0.0
692,366118.44143669187
705,0.0
730,475789.7977992655
2,1, 1, 1, 0,17, 0.00,60.00,Tuesday
383,9.76858182853407
384,15.56438353916348
385,15.083654581457492
386,11.758574046967754
387,10.038043185407009
388,9.555863870817497
389,11.718036616224389
390,13.679715735505337
391,48568433.18048143
452,0.0
477,547455.9423816528
502,0.0
515,875652.933893733
540,0.0
553,0.0
578,457091.73456911448
591,0.0
616,146226.58316314018
629,122971.67631120593
654,0.0
667,0.0
692,424142.0377727
705,471620.8281491239
730,0.0
2,1, 1, 1, 0,18, 0.00,60.00,Tuesday
383,10.014628595341284
384,15.950556029647233
385,15.637315218721922
386,11.660855988895407
387,9.836251888100155
388,9.34915286480755
389,11.653535730818487
390,13.970367285256902
391,59880256.18806492
452,0.0
477,975874.0181026951
502,0.0
515,1383468.2704994879
540,0.0
553,0.0
578,468701.5905086852
591,0.0
616,114511.94040763439
629,154130.08914142583
654,0.0
667,0.0
692,442443.777320634
705,681532.3634459085
730,0.0
2,1, 1, 1, 0,19, 0.00,60.00,Tuesday
383,10.075952730675344
384,15.444379756296867
385,14.929355023621876
386,11.544125458029129
387,9.60814040128154
388,9.115192686767023
389,11.577543344448087
390,13.707432880592157
391,37574843.63658487
452,0.0
477,204112.14816155798
502,0.0
515,436025.84864498735
540,0.0
553,0.0
578,489631.3756967155
591,0.0
616,102053.02956131999
629,168438.61974226504
654,0.0
667,0.0
692,471229.9136187661
705,295201.79675921876
730,0.0
2,1, 1, 1, 0,20, 0.00,60.00,Tuesday
383,10.094940071369578
384,15.338233630458632
385,14.787664265003447
386,11.349023090358717
387,9.332710957235303
388,8.898474498290959
389,11.411416035678112
390,13.643865720491406
391,38363014.80105431
452,0.0
477,267629.4371729531
502,0.0
515,530991.0023705792
540,0.0
553,0.0
578,492047.9952937593
591,0.0
616,61055.49739769767
629,174345.74385930249
654,0.0
667,0.0
692,479889.76725440149
705,319774.2717757581
730,0.0
2,1, 1, 1, 0,21, 0.00,60.00,Tuesday
383,10.104025094001397
384,15.4748094887832
385,15.344870188812412
386,11.083002309088832
387,8.991784554805628
388,8.62367937483959
389,11.130037222538573
390,13.756142650890873
391,50291153.60323943
452,0.0
477,724748.6738537678
502,0.0
515,993810.4292983001
540,0.0
553,0.0
578,493335.432301081
591,3550.7124283683426
616,23982.21146023043
629,175990.05476032673
654,0.0
667,0.0
692,477733.2091909856
705,534793.1781230061
730,0.0
2,1, 1, 1, 0,22, 0.00,60.00,Tuesday
383,10.108269617974756
384,15.695966687899812
385,15.818805457432927
386,10.866273065989134
387,8.691753119940156
388,8.335312762823293
389,10.929195973521129
390,13.84737623923009
391,58296999.59086586
452,0.0
477,998870.4980109983
502,0.0
515,1271241.526120333
540,0.0
553,0.0
578,518248.08447696079
591,0.0
616,34597.343319035375
629,157066.03276312076
654,0.0
667,0.0
692,504828.361707408
705,677024.1222550193
730,0.0
2,1, 1, 1, 0,23, 0.00,60.00,Tuesday
383,10.110228723636253
384,15.549215968921269
385,15.744273060305407
386,10.643977140844616
387,8.391047626342616
388,8.054074454110703
389,10.665864045674557
390,13.76071850390562
391,56293910.70123701
452,0.0
477,953930.4864736837
502,0.0
515,1188710.0139798648
540,0.0
553,0.0
578,532761.641143863
591,523.6267314036468
616,25883.776146997297
629,155095.15209647059
654,0.0
667,0.0
692,509557.50874739108
705,649183.7167660953
730,0.0
2,1, 1, 1, 0,24, 0.00,60.00,Tuesday
383,10.111345566993212
384,15.033008416213005
385,15.242309469790034
386,10.093301495640349
387,7.952538085765073
388,7.765141436064523
389,10.31717393227322
390,13.657137736159335
391,55264440.3849998
452,0.0
477,1040263.7191545263
502,0.0
515,1297422.8143472253
540,0.0
553,0.0
578,471182.24024537156
591,64441.5395354697
616,0.0
629,156970.85284959415
654,0.0
667,0.0
692,495614.5734476997
705,641665.0959541287
730,0.0
2,2, 1, 2, 0, 1, 0.00,60.00,Wednesday
383,6.614306460971358
384,13.668514849580168
385,13.29018496729572
386,17.493358018532324
387,22.4681228642404
388,21.276519401491514
389,17.34024219635649
390,12.88118765829064
391,43178256.89022205
452,0.0
477,48938.101811036744
502,33259.18195236244
515,175264.39915848844
540,31321.597474517865
553,6075130.157228543
578,0.0
591,12437247.045373932
616,0.0
629,11828067.668797778
654,0.0
667,5789325.864401549
692,0.0
705,104405.65039729844
730,6334.155348990276
2,2, 1, 2, 0, 2, 0.00,60.00,Wednesday
383,6.591217650642866
384,12.780056050379337
385,12.188210682785075
386,17.987000197853875
387,22.42386146752593
388,21.402471516230667
389,17.962041858640988
390,12.357046686526877
391,29552922.915459604
452,0.0
477,0.0
502,327157.5336201042
515,0.0
540,236535.38147237019
553,7303096.153363134
578,0.0
591,15856143.965712224
616,0.0
629,14816498.881917548
654,0.0
667,6924475.971896163
692,0.0
705,0.0
730,103124.1721001191
2,2, 1, 2, 0, 3, 0.00,60.00,Wednesday
383,6.585346294629252
384,13.044113382751326
385,12.565014898677728
386,17.999274846445446
387,22.067524952586959
388,21.19214547193531
389,18.03433377117456
390,12.464227744251989
391,45446061.61696328
452,0.0
477,256509.71575460863
502,0.0
515,492965.53973356928
540,0.0
553,5323311.345389105
578,0.0
591,11068564.529255163
616,0.0
629,10428485.6008469
654,0.0
667,5035583.378458643
692,0.0
705,185969.14614452679
730,0.0
2,2, 1, 2, 0, 4, 0.00,60.00,Wednesday
383,6.5818987565882189
384,12.139756710604165
385,11.092221202571686
386,18.000110046558797
387,21.702644002889163
388,20.93137514550299
389,18.084400388489465
390,11.960060331886693
391,26128763.57661061
452,0.0
477,0.0
502,310539.1780979232
515,0.0
540,66166.54758529188
553,4341717.758400648
578,0.0
591,8802113.369339277
616,0.0
629,8332741.489421118
654,0.0
667,4094769.3617385637
692,0.0
705,0.0
730,123468.99851632383
2,2, 1, 2, 0, 5, 0.00,60.00,Wednesday
383,6.580944404486113
384,13.210022301484857
385,12.681731418289872
386,18.00009785270434
387,21.523386076805438
388,20.827838501547839
389,18.135378403360887
390,12.55141774847569
391,54709448.9087746
452,0.0
477,593362.1811170972
502,0.0
515,951253.135735173
540,0.0
553,3975742.0038144604
578,0.0
591,7982307.019782236
616,0.0
629,7554592.114891406
654,0.0
667,3736822.198791335
692,0.0
705,351443.6281265615
730,0.0
2,2, 1, 2, 0, 6, 0.00,60.00,Wednesday
383,6.580552307537296
384,12.734587833012409
385,11.744648690564358
386,18.000149355724
387,21.452832862510797
388,20.807935578822908
389,18.17449909017954
390,12.328341076378044
391,43275162.32455019
452,0.0
477,243314.28919789027
502,0.0
515,642195.783901841
540,0.0
553,3796180.3964575754
578,0.0
591,7569879.224398335
616,0.0
629,7156497.837031127
654,0.0
667,3558121.3765297385
692,0.0
705,159813.9984165898
730,0.0
2,2, 1, 2, 0, 7, 0.00,60.00,Wednesday
383,6.580566565833131
384,12.647407543684097
385,11.509685245838249
386,18.000171860370068
387,21.404816737241668
388,20.77988003515651
389,18.173121005059757
390,12.270654523839936
391,38813153.852847728
452,0.0
477,82344.97721460421
502,0.0
515,479036.1524401447
540,0.0
553,3657659.8469067935
578,0.0
591,7247955.951085534
616,0.0
629,6856095.674763308
654,0.0
667,3427197.4964902799
692,0.0
705,81673.8589657986
730,0.0
2,2, 1, 2, 0, 8, 0.00,60.00,Wednesday
383,6.580519554431291
384,12.015009576238434
385,10.522535362445325
386,18.00011661439999
387,21.422417151161967
388,20.833287016287274
389,18.196747340178434
390,11.923320744219442
391,24585430.835806546
452,0.0
477,0.0
502,343081.53309277186
515,50361.74394774705
540,14204.65568746905
553,3611170.2265920627
578,0.0
591,7120132.965063206
616,0.0
629,6722096.963406625
654,0.0
667,3377948.801171085
692,0.0
705,0.0
730,148724.1990645635
2,2, 1, 2, 0, 9, 0.00,60.00,Wednesday
383,6.580501727105511
384,11.413002805460206
385,9.57966587418283
386,14.712868581946776
387,15.58954543548022
388,15.376857519822848
389,15.029859153152886
390,11.63323537456413
391,11736084.261045138
452,0.0
477,0.0
502,719681.8332280293
515,0.0
540,347125.6722984767
553,66449.36892924877
578,159254.5969170682
591,11280.586341959352
616,759854.6559723241
629,29018.780254067315
654,590759.6535237876
667,46956.61239293748
692,204548.3706444426
705,0.0
730,359541.2794690019
2,2, 1, 2, 0,10, 0.00,60.00,Wednesday
383,6.580573657467081
384,11.76315289587907
385,10.045284346309277
386,13.6707007289617
387,13.631877986812845
388,13.448513029851459
389,13.954716386680659
390,11.840104785458293
391,21875055.785290705
452,0.0
477,0.0
502,391792.1329629478
515,45773.36997680854
540,0.0
553,0.0
578,250529.47410376316
591,0.0
616,610428.461472172
629,0.0
654,452836.0181131174
667,0.0
692,299773.75471370169
705,0.0
730,190775.18720062759
2,2, 1, 2, 0,11, 0.00,60.00,Wednesday
383,6.580594550716921
384,11.498534376528456
385,9.49594890447252
386,12.859844618378448
387,12.48924643034087
388,12.356347576415783
389,13.08342113679985
390,11.776618498453108
391,14008170.519680916
452,0.0
477,0.0
502,648316.8696693342
515,0.0
540,198108.60860066536
553,0.0
578,196946.54879752754
591,7659.109921183699
616,288126.40682768289
629,24123.19067719559
654,206494.23647529324
667,0.0
692,235728.53902627063
705,0.0
730,333058.98400982699
2,2, 1, 2, 0,12, 0.00,60.00,Wednesday
383,6.580553392938022
384,12.234913370640724
385,10.470623568737132
386,12.758280359610973
387,11.915666596119049
388,11.589793427926534
389,12.733816894112234
390,11.971000864425737
391,15934638.64720735
452,0.0
477,0.0
502,752869.0418663536
515,0.0
540,412993.07560903186
553,0.0
578,282023.30227751409
591,0.0
616,218688.2236259469
629,42500.63821205476
654,67336.25610069721
667,0.0
692,261811.78681729974
705,0.0
730,319065.1088585503
2,2, 1, 2, 0,13, 0.00,60.00,Wednesday
383,6.581457808345299
384,13.0281565917167
385,10.851633049724648
386,12.956284854836259
387,11.738111002350236
388,11.156023159667877
389,12.367179387881637
390,12.255109548290838
391,17463364.29904541
452,0.0
477,0.0
502,888410.2847335754
515,0.0
540,455975.03140734499
553,0.0
578,386403.19669552156
591,0.0
616,262111.96998804599
629,71438.14306880004
654,0.0
667,0.0
692,236555.74603680598
705,0.0
730,323163.46697526206
2,2, 1, 2, 0,14, 0.00,60.00,Wednesday
383,6.5813994026590809
384,13.288437374926965
385,10.83582797218929
386,13.251339901262917
387,11.78638995391872
388,10.974313975131122
389,12.283733915740417
390,12.348378156979772
391,8456364.745666692
452,0.0
477,0.0
502,1322247.716288271
515,0.0
540,935240.6570412541
553,0.0
578,457625.3120599977
591,0.0
616,297272.6459249849
629,161314.01511565457
654,0.0
667,0.0
692,220785.40616704408
705,0.0
730,505205.9834374873
2,2, 1, 2, 0,15, 0.00,60.00,Wednesday
383,6.580992098854775
384,13.552362520971581
385,11.169873407938339
386,13.534513665780779
387,11.923996276516178
388,10.987155766166503
389,12.428768694057645
390,12.567961800766945
391,8895965.360527475
452,0.0
477,0.0
502,1370535.8710900197
515,0.0
540,1021200.1453856288
553,0.0
578,488613.25786298458
591,0.0
616,290065.33938031739
629,233770.9196858506
654,0.0
667,0.0
692,219734.4962881876
705,0.0
730,522469.8302810424
2,2, 1, 2, 0,16, 0.00,60.00,Wednesday
383,6.779810090247659
384,13.65301723083886
385,11.440878492548812
386,13.872351334438795
387,12.127149742137405
388,11.03316235829219
389,12.700789242653596
390,12.703970679971303
391,3797397.911024814
452,0.0
477,0.0
502,1555065.7519456908
515,0.0
540,1318868.6514574327
553,0.0
578,540162.6630099148
591,0.0
616,341172.4130322513
629,270842.97340761727
654,0.0
667,0.0
692,254057.38479591569
705,0.0
730,612246.7580142492
2,2, 1, 2, 0,17, 0.00,60.00,Wednesday
383,8.79378125074734
384,14.540021184904394
385,12.751913240598169
386,14.20362193862223
387,12.360706939608054
388,11.14426355295822
389,13.174670551706108
390,13.164743843063896
391,6648111.164894143
452,0.0
477,0.0
502,1157766.9101475198
515,0.0
540,935750.2370708208
553,0.0
578,556866.2258434997
591,0.0
616,326002.71191107798
629,349211.21315903848
654,0.0
667,0.0
692,301240.79256472826
705,0.0
730,378618.00226896119
2,2, 1, 2, 0,18, 0.00,60.00,Wednesday
383,9.419019157632303
384,14.758727145745884
385,13.099699102798273
386,14.352041777144907
387,12.432698830066297
388,11.22918021253623
389,13.399326860717597
390,13.342572436184997
391,5904185.870946751
452,0.0
477,0.0
502,1086838.0809444222
515,0.0
540,884829.0548376553
553,0.0
578,555677.5257422485
591,0.0
616,278136.16149978726
629,385471.3903761063
654,0.0
667,0.0
692,316880.66217445945
705,0.0
730,341013.9476611547
2,2, 1, 2, 0,19, 0.00,60.00,Wednesday
383,9.658133651418595
384,14.760783866829938
385,13.296742018964939
386,14.367875142659142
387,12.387820136177146
388,11.22815002663673
389,13.537628667848509
390,13.42370773643637
391,5048987.2428783909
452,0.0
477,0.0
502,1062674.141408252
515,0.0
540,916833.3699505291
553,0.0
578,563589.8118362108
591,0.0
616,262516.203349067
629,376346.5717299051
654,0.0
667,0.0
692,351315.87458493668
705,0.0
730,338968.2728322374
2,2, 1, 2, 0,20, 0.00,60.00,Wednesday
383,10.621682936605401
384,14.529741914988172
385,12.958143650777372
386,14.237040781263165
387,12.205229482418572
388,11.150032573296344
389,13.501970508567798
390,13.39783316781277
391,0.0
452,1576565.4735789544
477,0.0
502,1036575.1998446507
515,0.0
540,847559.1721918249
553,0.0
578,572557.7666017788
591,0.0
616,254866.47751236667
629,327990.1015953494
654,0.0
667,0.0
692,380754.29432218938
705,0.0
730,350600.91865260517
2,2, 1, 2, 0,21, 0.00,60.00,Wednesday
383,10.832519303603105
384,14.475117444619214
385,13.213534715650802
386,13.999323754564275
387,11.995841593300439
388,11.074356314545389
389,13.348534098089442
390,13.48596845261439
391,3658882.6460653918
452,0.0
477,0.0
502,755967.1591781486
515,0.0
540,580556.6199389038
553,0.0
578,527803.1796785303
591,0.0
616,158468.8600285208
629,344101.55796058548
654,0.0
667,0.0
692,356902.7917736672
705,0.0
730,236822.16582655657
2,2, 1, 2, 0,22, 0.00,60.00,Wednesday
383,11.441753189681215
384,14.34185552775979
385,13.14009578190529
386,13.842003994934443
387,11.810092521950505
388,10.939892015530312
389,13.239333884406899
390,13.41241678326804
391,0.0
452,1031120.8084457974
477,0.0
502,763272.8395754767
515,0.0
540,609731.135013504
553,0.0
578,548308.1593418405
591,0.0
616,193719.97630795704
629,285225.93297963557
654,0.0
667,0.0
692,386925.8139764959
705,0.0
730,247119.15348137448
2,2, 1, 2, 0,23, 0.00,60.00,Wednesday
383,10.615968177329118
384,14.660930159020719
385,13.83780429121368
386,13.575789275167644
387,11.570623090799316
388,10.80494950868877
389,13.066399649074033
390,13.63148077919912
391,15907692.36137532
452,0.0
477,0.0
502,354084.6955201724
515,0.0
540,196203.50386812353
553,0.0
578,523650.539068472
591,0.0
616,147193.481242318
629,271874.56954969788
654,0.0
667,0.0
692,384090.18917659707
705,3575.973533988406
730,49164.88230717278
2,2, 1, 2, 0,24, 0.00,60.00,Wednesday
383,10.351961533454656
384,14.728794471122637
385,14.24887519355513
386,13.045895751652996
387,11.257699608043645
388,10.690324658295064
389,12.82214691557457
390,13.891008886156829
391,32412490.037868598
452,0.0
477,239604.30765143349
502,0.0
515,471102.6636767071
540,0.0
553,0.0
578,420160.03723598647
591,15567.542390553808
616,28535.458134440843
629,287987.4285299871
654,0.0
667,0.0
692,348858.7344217648
705,207960.1676267475
730,0.0
2,3, 1, 3, 0, 1, 0.00,60.00,Thursday
383,6.96816963152974
384,12.962048302545128
385,11.72563122300638
386,17.81543840256605
387,20.159263287955466
388,19.326492694821927
389,17.138218928934664
390,12.939440671209879
391,8364790.189872945
452,0.0
477,0.0
502,1146522.0616010458
515,0.0
540,1101816.7620294363
553,3218368.571396173
578,0.0
591,6759126.394332164
616,0.0
629,6525955.739809855
654,0.0
667,3198005.4551244589
692,0.0
705,0.0
730,529838.9169347119
2,3, 1, 3, 0, 2, 0.00,60.00,Thursday
383,6.769693342575679
384,12.7187827993119
385,11.635357644083256
386,17.98678613167629
387,20.27283723533599
388,19.319720554441596
389,17.66812648668508
390,12.838957300825696
391,14644332.734870609
452,0.0
477,0.0
502,878237.0129922336
515,0.0
540,799557.7846834936
553,4036381.1304224955
578,0.0
591,8860398.287759744
616,0.0
629,8481533.750877
654,0.0
667,3894152.394840071
692,0.0
705,0.0
730,421719.780778201
2,3, 1, 3, 0, 3, 0.00,60.00,Thursday
383,6.609987481780985
384,13.527171722373444
385,12.853904980839728
386,17.999818396154148
387,20.168761012177414
388,19.363926431558104
389,17.7655428058242
390,13.214683838740348
391,39483134.63383704
452,0.0
477,2533.9551558412229
502,104330.27436317597
515,85904.35561968789
540,0.0
553,3166733.994291327
578,0.0
591,6731294.274765924
616,0.0
629,6486027.428690043
654,0.0
667,3051641.7424605407
692,0.0
705,4104.358215653807
730,15331.469929795163
2,3, 1, 3, 0, 4, 0.00,60.00,Thursday
383,6.582028471191047
384,13.573725405198652
385,12.710701691145666
386,18.000146618828624
387,20.09088474128242
388,19.369423946526987
389,17.868414626633425
390,13.26638756484518
391,39761498.23645372
452,0.0
477,0.0
502,108950.32719835836
515,138395.7175491343
540,0.0
553,2776303.8475987918
578,0.0
591,5790459.948613293
616,0.0
629,5594831.732136624
654,0.0
667,2659190.3444966229
692,0.0
705,0.0
730,15142.984850028915
2,3, 1, 3, 0, 5, 0.00,60.00,Thursday
383,6.580989268681753
384,13.361781715980165
385,12.364163425110766
386,18.000171299481417
387,20.075339142130376
388,19.408759348204016
389,17.93854116519401
390,13.170723401686873
391,35702410.22038087
452,0.0
477,0.0
502,222671.8491328328
515,32989.15948790427
540,0.0
553,2590135.8020867856
578,0.0
591,5329090.335707335
616,0.0
629,5150423.445642678
654,0.0
667,2467406.087257539
692,0.0
705,0.0
730,81357.64620405465
2,3, 1, 3, 0, 6, 0.00,60.00,Thursday
383,8.393628265731185
384,12.180854525960156
385,10.690256519559194
386,18.000089259523059
387,20.02311940182731
388,19.38859511870662
389,17.929588574644
390,12.562376581871403
391,0.0
452,1173543.2009200028
477,0.0
502,988682.0139569836
515,0.0
540,811939.4322930941
553,2424243.543463057
578,0.0
591,4940402.23626768
616,0.0
629,4783499.188737699
654,0.0
667,2312189.909409776
692,0.0
705,0.0
730,503077.6201410962
2,3, 1, 3, 0, 7, 0.00,60.00,Thursday
383,6.674077897093391
384,13.929556249525139
385,13.339017833953019
386,18.00003567881588
387,20.099405631785939
388,19.523156163801177
389,18.01796738889948
390,13.468427651487208
391,48434116.639347318
452,0.0
477,180402.13203484159
502,0.0
515,429426.1853310531
540,0.0
553,2441160.6761965306
578,0.0
591,4938463.359242528
616,0.0
629,4750974.80107154
654,0.0
667,2308773.5644275068
692,0.0
705,136945.37706422457
730,0.0
2,3, 1, 3, 0, 8, 0.00,60.00,Thursday
383,6.608459228311744
384,14.221687067236271
385,13.4345383467802
386,18.000119266289756
387,20.148969816287857
388,19.611449726021669
389,18.06130268899563
390,13.718405820232935
391,56678977.64703022
452,0.0
477,429143.24831817139
502,0.0
515,820134.962226846
540,0.0
553,2431315.039720691
578,0.0
591,4884564.970454782
616,0.0
629,4681992.284331971
654,0.0
667,2289937.692952283
692,0.0
705,257295.57982763597
730,0.0
2,3, 1, 3, 0, 9, 0.00,60.00,Thursday
383,6.581595812529921
384,15.808111511315702
385,15.606222608590232
386,15.713810486295783
387,16.094320071329258
388,15.834839128407668
389,15.822733601359002
390,14.610248849683123
391,88404613.97108658
452,0.0
477,1327246.1234482458
502,0.0
515,1808346.1480416286
540,0.0
553,63221.66453557152
578,101099.12339544861
591,53734.903461766706
616,372611.1707482106
629,80376.75005730633
654,230482.1571799604
667,52445.04384265963
692,112273.97286092217
705,754390.5014608576
730,0.0
2,3, 1, 3, 0,10, 0.00,60.00,Thursday
383,6.580713862186621
384,15.290559849086688
385,14.53839125065227
386,15.083237443713106
387,14.823275220611102
388,14.592153562599443
389,15.06735888978036
390,14.425736532661335
391,62559064.59656486
452,0.0
477,397253.37021603199
502,0.0
515,766861.497660841
540,0.0
553,0.0
578,195633.4392249468
591,0.0
616,341985.8275101787
629,16134.500682602084
654,202024.17863093859
667,0.0
692,181850.9184967264
705,284181.8421161882
730,0.0
2,3, 1, 3, 0,11, 0.00,60.00,Thursday
383,6.5806748236893279
384,15.062269964505444
385,13.9144469243238
386,14.5758903473609
387,14.118265761574645
388,13.832324158891872
389,14.460436417363221
390,14.374543521944983
391,47353186.23633725
452,0.0
477,0.0
502,168740.23777273744
515,152824.96331811383
540,0.0
553,0.0
578,197980.83581036607
591,0.0