Program Version,EnergyPlus, Version 9.1.0-08d2e308bb, YMD=2020.02.05 00:41
1,5,Environment Title[],Latitude[deg],Longitude[deg],Time Zone[],Elevation[m]
2,8,Day of Simulation[],Month[],Day of Month[],DST Indicator[1=yes 0=no],Hour[],StartMinute[],EndMinute[],DayType
3,5,Cumulative Day of Simulation[],Month[],Day of Month[],DST Indicator[1=yes 0=no],DayType  ! When Daily Report Variables Requested
4,2,Cumulative Days of Simulation[],Month[]  ! When Monthly Report Variables Requested
5,1,Cumulative Days of Simulation[] ! When Run Period Report Variables Requested
6,1,Calendar Year of Simulation[] ! When Annual Report Variables Requested
383,1,THERMAL ZONE 1,Zone Mean Air Temperature [C] !Hourly
384,1,THERMAL ZONE 2,Zone Mean Air Temperature [C] !Hourly
385,1,THERMAL ZONE 3,Zone Mean Air Temperature [C] !Hourly
386,1,THERMAL ZONE 4,Zone Mean Air Temperature [C] !Hourly
387,1,THERMAL ZONE 5,Zone Mean Air Temperature [C] !Hourly
388,1,THERMAL ZONE 6,Zone Mean Air Temperature [C] !Hourly
389,1,THERMAL ZONE 7,Zone Mean Air Temperature [C] !Hourly
390,1,THERMAL ZONE 8,Zone Mean Air Temperature [C] !Hourly
391,1,THERMAL ZONE 1,Zone Air System Sensible Heating Energy [J] !Hourly
452,1,THERMAL ZONE 1,Zone Air System Sensible Cooling Energy [J] !Hourly
477,1,THERMAL ZONE 2,Zone Air System Sensible Heating Energy [J] !Hourly
502,1,THERMAL ZONE 2,Zone Air System Sensible Cooling Energy [J] !Hourly
515,1,THERMAL ZONE 3,Zone Air System Sensible Heating Energy [J] !Hourly
540,1,THERMAL ZONE 3,Zone Air System Sensible Cooling Energy [J] !Hourly
553,1,THERMAL ZONE 4,Zone Air System Sensible Heating Energy [J] !Hourly
578,1,THERMAL ZONE 4,Zone Air System Sensible Cooling Energy [J] !Hourly
591,1,THERMAL ZONE 5,Zone Air System Sensible Heating Energy [J] !Hourly
616,1,THERMAL ZONE 5,Zone Air System Sensible Cooling Energy [J] !Hourly
629,1,THERMAL ZONE 6,Zone Air System Sensible Heating Energy [J] !Hourly
654,1,THERMAL ZONE 6,Zone Air System Sensible Cooling Energy [J] !Hourly
667,1,THERMAL ZONE 7,Zone Air System Sensible Heating Energy [J] !Hourly
692,1,THERMAL ZONE 7,Zone Air System Sensible Cooling Energy [J] !Hourly
705,1,THERMAL ZONE 8,Zone Air System Sensible Heating Energy [J] !Hourly
730,1,THERMAL ZONE 8,Zone Air System Sensible Cooling Energy [J] !Hourly
11,9,Electricity:Facility [J] !Monthly [Value,Min,Day,Hour,Minute,Max,Day,Hour,Minute]
End of Data Dictionary
1,RUN PERIOD 1,  33.63, -84.44,  -5.00, 308.00
2,1, 1, 1, 0, 1, 0.00,60.00,Tuesday
383,6.785925935115887
384,13.155415918246396
385,13.168704692459953
386,17.395909638517347
387,22.073348685524136
388,21.091787097669138
389,17.320268385213944
390,12.339994910995176
391,375181713.2134677
452,0.0
477,474646.4482771133
502,0.0
515,562675.0097233154
540,0.0
553,7014744.216778956
578,0.0
591,13600580.14849299
616,0.0
629,13129962.433383286
654,0.0
667,6647622.962570107
692,0.0
705,282225.7050915833
730,0.0
2,1, 1, 1, 0, 2, 0.00,60.00,Tuesday
383,6.739046808663885
384,13.025243116408334
385,13.127616418000044
386,17.974298342182395
387,22.09918416724931
388,21.280054145776299
389,17.960000413713759
390,12.252799128159142
391,388776499.37465956
452,0.0
477,583801.9881830462
502,0.0
515,662108.9278043025
540,0.0
553,8450949.49691771
578,0.0
591,17289286.808637784
616,0.0
629,16453371.259329483
654,0.0
667,7990056.357157849
692,0.0
705,320550.74193044498
730,0.0
2,1, 1, 1, 0, 3, 0.00,60.00,Tuesday
383,6.7269197428881128
384,12.688147270635808
385,12.514202491026876
386,17.99794850669924
387,21.715347208845964
388,21.034026581526299
389,18.057936411645046
390,12.133249252735263
391,371443532.17708817
452,0.0
477,571414.5995445881
502,0.0
515,743335.7257550273
540,0.0
553,6056656.434325394
578,0.0
591,11934834.925525982
616,0.0
629,11421934.19344283
654,0.0
667,5709340.354078786
692,0.0
705,290563.9394294778
730,0.0
2,1, 1, 1, 0, 4, 0.00,60.00,Tuesday
383,6.721117270008985
384,12.398342716977722
385,12.003047357052289
386,17.999951209349854
387,21.288137296146858
388,20.68581087268995
389,18.08994373244503
390,11.986654881320682
391,324551372.30729189
452,0.0
477,363414.5354765494
502,0.0
515,571670.0819885694
540,0.0
553,4856591.277795188
578,0.0
591,9385608.39171093
616,0.0
629,9019123.23997682
654,0.0
667,4567963.704062524
692,0.0
705,191610.22932726745
730,0.0
2,1, 1, 1, 0, 5, 0.00,60.00,Tuesday
383,6.718511030319059
384,11.335552528356967
385,10.413202124278529
386,18.000090998644674
387,21.126688158946594
388,20.60890126128212
389,18.17413931618598
390,11.50284704584416
391,149348273.5044182
452,0.0
477,0.0
502,415902.0073561159
515,0.0
540,176296.74844795766
553,4433087.39983631
578,0.0
591,8492158.747423185
616,0.0
629,8145493.796793401
654,0.0
667,4147388.4434062747
692,0.0
705,0.0
730,184232.99422753283
2,1, 1, 1, 0, 6, 0.00,60.00,Tuesday
383,6.717126614181018
384,11.44791361788783
385,10.676476216196928
386,18.000166469658799
387,21.038990110886318
388,20.56948815023786
389,18.220874803969364
390,11.539417907349537
391,225807196.3000975
452,0.0
477,25915.84191689312
502,0.0
515,299103.16298186176
540,0.0
553,4209466.194366556
578,0.0
591,8021890.692328399
616,0.0
629,7683558.179647965
654,0.0
667,3924763.539312005
692,0.0
705,0.0
730,278.66176551719948
2,1, 1, 1, 0, 7, 0.00,60.00,Tuesday
383,6.716343429510252
384,13.758466016842937
385,13.429908714380734
386,18.000111293852329
387,21.039320560841206
388,20.605840972140819
389,18.262180974255906
390,12.668758255293128
391,595905675.3741777
452,0.0
477,1652354.7884516766
502,0.0
515,2088437.0381216563
540,0.0
553,4125628.7531222936
578,0.0
591,7825629.954533883
616,0.0
629,7481979.418003772
654,0.0
667,3835531.2366440289
692,0.0
705,780995.9800464212
730,0.0
2,1, 1, 1, 0, 8, 0.00,60.00,Tuesday
383,6.716571578021734
384,12.97733895967498
385,12.51234444207646
386,18.00023444882189
387,21.07832009159669
388,20.669683742479945
389,18.28469510982662
390,12.406565948956076
391,472057297.09723207
452,0.0
477,1110616.1145374499
502,0.0
515,1488564.6059350717
540,0.0
553,4094829.179337276
578,0.0
591,7730356.6843506549
616,0.0
629,7380044.892612403
654,0.0
667,3801008.7235233315
692,0.0
705,506294.44067606088
730,0.0
2,1, 1, 1, 0, 9, 0.00,60.00,Tuesday
383,6.716619411350684
384,13.111169756619863
385,12.458969076214352
386,14.216229337545226
387,14.794755009684187
388,14.691309003078958
389,14.670685413608238
390,12.448995231582505
391,436611204.7673954
452,0.0
477,851729.5354513176
502,0.0
515,1244275.3908262118
540,0.0
553,42522.263004738685
578,252123.7271189312
591,4447.178189210626
616,840833.1523741703
629,14507.412175020989
654,731182.9341141323
667,22199.134020307276
692,330269.2942026062
705,414147.69725716146
730,0.0
2,1, 1, 1, 0,10, 0.00,60.00,Tuesday
383,6.716783517140732
384,14.223934949652615
385,14.00955119879694
386,12.962690096358035
387,12.571053228898233
388,12.562452653392434
389,13.412521028368733
390,13.032955267586065
391,648230224.4370586
452,0.0
477,1841964.1941632378
502,0.0
515,2275423.2930050177
540,0.0
553,0.0
578,397497.680965943
591,0.0
616,694859.2746211978
629,0.0
654,638261.852684855
667,0.0
692,484519.1897788267
705,867808.5767435038
730,0.0
2,1, 1, 1, 0,11, 0.00,60.00,Tuesday
383,6.716800364104841
384,13.492148586409757
385,12.810309104311026
386,11.904275864661934
387,11.209469400054222
388,11.157339721546004
389,12.323509277577429
390,12.733064753258767
391,470324592.3709424
452,0.0
477,950036.4619913993
502,0.0
515,1372103.7875000726
540,0.0
553,0.0
578,387263.961529753
591,0.0
616,489454.00245381958
629,0.0
654,424066.1515314415
667,0.0
692,467438.8595952423
705,464272.43367780817
730,0.0
2,1, 1, 1, 0,12, 0.00,60.00,Tuesday
383,6.7169486317475999
384,13.543032649919919
385,13.038361586195503
386,11.589501750057979
387,10.435756447012699
388,10.20917006190744
389,11.935527997750933
390,12.662981549991394
391,405930673.8246958
452,0.0
477,535249.6286785135
502,0.0
515,814935.6038441388
540,0.0
553,0.0
578,492887.6643958985
591,0.0
616,461673.8669486304
629,0.0
654,301712.0961342653
667,0.0
692,549541.6061627098
705,313723.6604703277
730,0.0
2,1, 1, 1, 0,13, 0.00,60.00,Tuesday
383,6.717147182223064
384,14.10155604977697
385,13.675459855163096
386,11.13976858851847
387,9.82106713200039
388,9.613723101439188
389,11.439721124542814
390,13.015951701694473
391,521328391.0881616
452,0.0
477,1088783.652149741
502,0.0
515,1449110.6584629096
540,0.0
553,0.0
578,459353.7055852767
591,0.0
616,284528.1142901702
629,0.0
654,148438.06927284879
667,0.0
692,506700.0541547457
705,556910.3868910412
730,0.0
2,1, 1, 1, 0,14, 0.00,60.00,Tuesday
383,6.716885483802246
384,13.999443822181143
385,13.48698501171437
386,10.917657913664418
387,9.422664766721525
388,9.177298227799982
389,11.16931045293984
390,13.032300342050157
391,473330418.3437518
452,0.0
477,819998.1919887338
502,0.0
515,1157981.960470547
540,0.0
553,0.0
578,472831.3649987555
591,0.0
616,210491.91961711896
629,16152.521391347318
654,75008.91801740226
667,0.0
692,507749.6921577514
705,436662.1770373227
730,0.0
2,1, 1, 1, 0,15, 0.00,60.00,Tuesday
383,6.716999800202864
384,13.05640966469649
385,12.149977258503382
386,10.728082243698866
387,9.068175930302516
388,8.806157681643868
389,10.95994606409842
390,12.610174670960774
391,277406076.94591417
452,0.0
477,0.0
502,122374.85480566819
515,168887.85276918004
540,0.0
553,0.0
578,505594.98359801658
591,0.0
616,188314.37925549825
629,9304.529193505059
654,38401.283487435634
667,0.0
692,533926.6103328458
705,7038.327327036587
730,4088.159738177174
2,1, 1, 1, 0,16, 0.00,60.00,Tuesday
383,6.716847981767377
384,12.034844080188443
385,11.069982034332057
386,10.693298363470781
387,8.888514405166067
388,8.559220416920514
389,10.90249707126321
390,12.079727273839144
391,113938388.26821159
452,0.0
477,0.0
502,840142.295818116
515,0.0
540,668482.4637689057
553,0.0
578,532712.4927853625
591,0.0
616,164918.64928854834
629,29840.327577324046
654,0.0
667,0.0
692,554071.3598637341
705,0.0
730,338258.7664516134
2,1, 1, 1, 0,17, 0.00,60.00,Tuesday
383,9.402149473209846
384,14.595899971420814
385,14.468611719109284
386,10.70354600407333
387,8.774269755522618
388,8.345280761922698
389,11.040894061648446
390,13.121668482861344
391,393058853.00794658
452,0.0
477,928544.9411738752
502,0.0
515,1153866.7577536875
540,0.0
553,0.0
578,559501.9084047984
591,0.0
616,152924.5420332167
629,96199.3305965856
654,0.0
667,0.0
692,610408.8907877458
705,538235.1198874285
730,0.0
2,1, 1, 1, 0,18, 0.00,60.00,Tuesday
383,9.781979251933758
384,15.114334375277647
385,15.21697867734223
386,10.606881154169985
387,8.559338101537018
388,8.125636408183399
389,10.964172145688229
390,13.40122806857016
391,488303304.4529517
452,0.0
477,1479855.065869532
502,0.0
515,1732660.1354041694
540,0.0
553,0.0
578,580932.6133472751
591,0.0
616,132173.38739455568
629,118019.58075226736
654,0.0
667,0.0
692,635491.7145244002
705,784397.6839182397
730,0.0
2,1, 1, 1, 0,19, 0.00,60.00,Tuesday
383,9.858006090760878
384,14.472527221262713
385,14.386848870442162
386,10.487400328201439
387,8.329302163017536
388,7.892617969252889
389,10.889062894016707
390,13.100251849086999
391,312145992.5465943
452,0.0
477,595312.5907134174
502,0.0
515,741139.7707009442
540,0.0
553,0.0
578,605481.7933452975
591,0.0
616,123350.50827453233
629,127837.23626585133
654,0.0
667,0.0
692,669433.6597695812
705,394391.64661811778
730,0.0
2,1, 1, 1, 0,20, 0.00,60.00,Tuesday
383,9.886573009870873
384,14.38340375968722
385,14.224675613379255
386,10.274365396632275
387,8.03504479557149
388,7.656543710206959
389,10.711411433163044
390,13.020699512651764
391,318527217.5707833
452,0.0
477,669441.175920822
502,0.0
515,855092.1671440727
540,0.0
553,0.0
578,606456.0013080351
591,0.0
616,76997.9577677751
629,138486.79358226365
654,0.0
667,0.0
692,678918.7755900832
705,422690.40781788868
730,0.0
2,1, 1, 1, 0,21, 0.00,60.00,Tuesday
383,9.903662446715615
384,14.560847755738696
385,14.82287181521262
386,9.987373292243735
387,7.670756510250529
388,7.3583574834019089
389,10.407541053017673
390,13.113217041137819
391,415506892.5445806
452,0.0
477,1225403.9377666359
502,0.0
515,1373097.7708894059
540,0.0
553,0.0
578,608978.5327718317
591,0.0
616,36680.12044299917
629,139155.97842239153
654,0.0
667,0.0
692,677213.7315557182
705,652965.1646819965
730,0.0
2,1, 1, 1, 0,22, 0.00,60.00,Tuesday
383,9.912941910635962
384,14.81113570333882
385,15.315182084589392
386,9.749800283922309
387,7.344556510766322
388,7.044099427129223
389,10.18093242918474
390,13.182999009185572
391,481017587.896211
452,0.0
477,1562275.9767966392
502,0.0
515,1691553.2883336954
540,0.0
553,0.0
578,637695.7285710995
591,0.0
616,50829.651919424396
629,119435.65182541525
654,0.0
667,0.0
692,707001.8857480466
705,807356.8860386026
730,0.0
2,1, 1, 1, 0,23, 0.00,60.00,Tuesday
383,9.917483057658732
384,14.652498629122352
385,15.225126928223834
386,9.508327119966499
387,7.019564324682933
388,6.736547455741126
389,9.886471125024553
390,13.072713814753947
391,464111624.1844851
452,0.0
477,1504871.2815906406
502,0.0
515,1599166.0806864878
540,0.0
553,0.0
578,655179.3637098037
591,0.0
616,41785.42352598497
629,118133.22698379038
654,0.0
667,0.0
692,710695.633703968
705,778973.8908329106
730,0.0
2,1, 1, 1, 0,24, 0.00,60.00,Tuesday
383,9.920022985243517
384,14.320059090509354
385,14.818567080058065
386,8.947569213687708
387,6.556298649357993
388,6.4214858430462879
389,9.357127998728874
390,12.94037139330217
391,452070638.6625632
452,0.0
477,1527494.5359506575
502,0.0
515,1651975.0854348783
540,0.0
553,0.0
578,590663.1698648003
591,50606.202037319505
616,0.0
629,121518.90010651213
654,0.0
667,0.0
692,657321.2174026861
705,764841.1061304812
730,0.0
2,2, 1, 2, 0, 1, 0.00,60.00,Wednesday
383,6.798495003210621
384,13.149013848494
385,13.22759303083429
386,17.381898391724289
387,22.132640656563419
388,21.177738191859889
389,17.38101614198893
390,12.297128187942763
391,389991716.274796
452,0.0
477,574690.2602625392
502,0.0
515,659399.4340934386
540,0.0
553,7105527.614813217
578,0.0
591,13768508.47268309
616,0.0
629,13270545.80643572
654,0.0
667,6715356.307387482
692,0.0
705,326125.6347298881
730,0.0
2,2, 1, 2, 0, 2, 0.00,60.00,Wednesday
383,6.747615474811794
384,12.196324972408839
385,12.030727915582775
386,17.987654993485497
387,22.231455955587785
388,21.42973201993742
389,18.042209214081767
390,11.750705590980843
391,269242819.959669
452,0.0
477,95807.15049217439
502,8515.556828730696
515,161843.46619113943
540,0.0
553,8583315.324447196
578,0.0
591,17526929.61589399
616,0.0
629,16663543.529723349
654,0.0
667,8098528.380741474
692,0.0
705,86000.00347684379
730,0.0
2,2, 1, 2, 0, 3, 0.00,60.00,Wednesday
383,6.732441375791755
384,12.543491945891637
385,12.477393672977734
386,17.999283938541674
387,21.878853450480415
388,21.20420045645586
389,18.112880264767598
390,11.866999652235112
391,396762827.83796587
452,0.0
477,773751.1483868011
502,0.0
515,947519.3440577139
540,0.0
553,6287016.165251835
578,0.0
591,12376295.670882132
616,0.0
629,11826689.185917829
654,0.0
667,5914102.8093402539
692,0.0
705,384835.32128678067
730,0.0
2,2, 1, 2, 0, 4, 0.00,60.00,Wednesday
383,6.723325328234433
384,11.536701545400997
385,10.916008958469762
386,18.000118912709906
387,21.539228293639053
388,20.94859492530861
389,18.151786817542488
390,11.372417110140827
391,233572245.60077483
452,0.0
477,63884.915208562146
502,13235.917005358744
515,276172.2162625394
540,0.0
553,5174777.143310558
578,0.0
591,9979725.08577146
616,0.0
629,9562345.651216373
654,0.0
667,4853761.440532374
692,0.0
705,39027.71962088707
730,0.0
2,2, 1, 2, 0, 5, 0.00,60.00,Wednesday
383,6.718356447056919
384,12.865824587440006
385,12.657831886080015
386,18.000096118746023
387,21.387249071422958
388,20.859188291838234
389,18.198541153351515
390,11.97879168068169
391,470635115.82165768
452,0.0
477,1134470.480699981
502,0.0
515,1427856.7361813565
540,0.0
553,4765115.875658089
578,0.0
591,9112956.00266412
616,0.0
629,8725581.060205369
654,0.0
667,4455289.576898591
692,0.0
705,552144.8014912487
730,0.0
2,2, 1, 2, 0, 6, 0.00,60.00,Wednesday
383,6.717242174906843
384,12.236580583265724
385,11.654891480552737
386,18.00015870184779
387,21.332938744845558
388,20.849584547948724
389,18.236292880403945
390,11.743180900133453
391,373913498.654675
452,0.0
477,716669.2793717289
502,0.0
515,1058466.967438825
540,0.0
553,4564622.564770609
578,0.0
591,8676758.581639054
616,0.0
629,8297164.13627512
654,0.0
667,4256693.692206079
692,0.0
705,341077.9286595605
730,0.0
2,2, 1, 2, 0, 7, 0.00,60.00,Wednesday
383,6.717093422038087
384,12.141409623441385
385,11.410954403585356
386,18.00018003679492
387,21.300414159185288
388,20.826854410314746
389,18.227178420489709
390,11.695191416562134
391,336037867.0845249
452,0.0
477,509190.37589004766
502,0.0
515,862225.5164452926
540,0.0
553,4405573.341628319
578,0.0
591,8324397.155654771
616,0.0
629,7965665.997576648
654,0.0
667,4108595.677590367
692,0.0
705,253364.51386684867
730,0.0
2,2, 1, 2, 0, 8, 0.00,60.00,Wednesday
383,6.716912022838942
384,11.429065080803298
385,10.33894268437886
386,18.000120381818819
387,21.33167861895281
388,20.8895505049138
389,18.246558982155788
390,11.365797381391467
391,216864405.94173218
452,0.0
477,3959.6818288239435
502,27640.99598648422
515,350452.7239978652
540,0.0
553,4351746.863372928
578,0.0
591,8179831.735783276
616,0.0
629,7814473.813399666
654,0.0
667,4053024.0037487198
692,0.0
705,2660.0776320484444
730,4755.890182284287
2,2, 1, 2, 0, 9, 0.00,60.00,Wednesday
383,6.716803876470061
384,10.691026059491396
385,9.323306019681237
386,14.055289892684606
387,14.724282764271937
388,14.594195827045843
389,14.452829158510163
390,11.022673627429196
391,109550045.12320127
452,0.0
477,0.0
502,475513.0989253844
515,0.0
540,92968.7627580177
553,35198.6391369701
578,291535.8510938673
591,0.0
616,999772.550985833
629,1578.530887232495
654,854698.8325030954
667,20326.11313481386
692,358773.579565191
705,0.0
730,226794.6461101895
2,2, 1, 2, 0,10, 0.00,60.00,Wednesday
383,6.716902090956591
384,11.109820319716773
385,9.838121540192934
386,12.86680471353947
387,12.539150292585294
388,12.49418539944926
389,13.232069219090464
390,11.251194243317775
391,194699502.9910896
452,0.0
477,0.0
502,68875.4693352872
515,359636.667465603
540,0.0
553,0.0
578,401189.05363798959
591,0.0
616,741835.5271124319
629,0.0
654,661587.185150965
667,0.0
692,467532.42770892279
705,0.0
730,43611.50867054926
2,2, 1, 2, 0,11, 0.00,60.00,Wednesday
383,6.717087382332004
384,10.794921802736474
385,9.277895030585626
386,11.926348673627747
387,11.307670816519098
388,11.208116944527735
389,12.23368277351759
390,11.19833140617798
391,130593256.93181597
452,0.0
477,0.0
502,375569.17486647886
515,78502.89086651099
540,0.0
553,0.0
578,338250.1818423219
591,0.0
616,420458.95693325196
629,0.0
654,333938.9288677419
667,0.0
692,394037.2255663741
705,0.0
730,195431.1963882097
2,2, 1, 2, 0,12, 0.00,60.00,Wednesday
383,6.716937362267833
384,11.376395620741337
385,10.168877239281948
386,11.780947321798096
387,10.716029120374559
388,10.437546893409142
389,12.002792700179017
390,11.453163603788305
391,153232393.7514375
452,0.0
477,0.0
502,404751.9603183991
515,0.0
540,63854.87150573485
553,0.0
578,399647.28200886226
591,0.0
616,296798.8907991139
629,15878.806642992002
654,136229.95707817516
667,0.0
692,431377.24673097245
705,0.0
730,169319.1536904137
2,2, 1, 2, 0,13, 0.00,60.00,Wednesday
383,6.718215249950418
384,12.146695519914458
385,10.591092589602156
386,11.964752697177442
387,10.552398291902902
388,10.015262300861087
389,11.687642932074285
390,11.79978150819202
391,167358874.19952349
452,0.0
477,0.0
502,542098.9538422811
515,0.0
540,106553.15507799274
553,0.0
578,490537.1133249695
591,0.0
616,301031.20327330319
629,28682.3924657534
654,9534.524227848033
667,0.0
692,396497.37484502847
705,0.0
730,174850.66017377034
2,2, 1, 2, 0,14, 0.00,60.00,Wednesday
383,6.717441161890195
384,12.3037113789064
385,10.583050288494313
386,12.293155616958968
387,10.6696814831935
388,9.918359257827902
389,11.734816178343241
390,11.914389510001622
391,95265959.77627525
452,0.0
477,0.0
502,1035718.9152127957
515,0.0
540,638920.1128779932
553,0.0
578,552195.3691100865
591,0.0
616,318677.4102039618
629,121573.64455184792
654,0.0
667,0.0
692,386674.72988728419
705,0.0
730,365606.63114593239
2,2, 1, 2, 0,15, 0.00,60.00,Wednesday
383,6.717136239973983
384,12.739367827801548
385,11.059194919362021
386,12.688150800285304
387,10.832329006765058
388,9.926064500008807
389,11.905337681986069
390,12.28097552668791
391,102822273.80350943
452,0.0
477,0.0
502,1116540.5892267579
515,0.0
540,749190.5702293096
553,0.0
578,617085.1085744014
591,0.0
616,330928.2260850809
629,196239.15106472374
654,0.0
667,0.0
692,393604.594586913
705,0.0
730,389655.41138472247
2,2, 1, 2, 0,16, 0.00,60.00,Wednesday
383,6.716904144225802
384,12.801038145907662
385,11.278768152649392
386,13.109131668596442
387,11.108505069451157
388,10.035203721261658
389,12.268855823878287
390,12.448013199563587
391,60455874.168621648
452,0.0
477,0.0
502,1397694.73070882
515,0.0
540,1139987.0059390718
553,0.0
578,676009.1281233486
591,0.0
616,381756.2500612986
629,241875.63513983793
654,0.0
667,0.0
692,435348.3059823455
705,0.0
730,513399.0580013083
2,2, 1, 2, 0,17, 0.00,60.00,Wednesday
383,7.839323667796547
384,13.42213946837997
385,12.02958233185098
386,13.49904331288959
387,11.376738951194742
388,10.184703605223867
389,12.799842973685696
390,12.744109612138452
391,61524687.683082077
452,0.0
477,0.0
502,1244760.2818357358
515,0.0
540,1002465.9100103488
553,0.0
578,703667.5412638291
591,0.0
616,373518.6887271175
629,315334.0379309542
654,0.0
667,0.0
692,495656.26475067276
705,0.0
730,415225.2372451938
2,2, 1, 2, 0,18, 0.00,60.00,Wednesday
383,8.473844097269418
384,13.611030141081474
385,12.382280799469795
386,13.708209869786
387,11.49666219066605
388,10.319093999685642
389,13.09684708036822
390,12.952372988613416
391,57058983.879246409
452,0.0
477,0.0
502,1142124.431712095
515,0.0
540,936972.7615761156
553,0.0
578,701244.4521478502
591,0.0
616,314396.84905832938
629,361985.9575892376
654,0.0
667,0.0
692,514641.362298465
705,0.0
730,376842.9566171197
2,2, 1, 2, 0,19, 0.00,60.00,Wednesday
383,8.775860111690316
384,13.564844431449203
385,12.495401976353279
386,13.710320979777216
387,11.448168818607208
388,10.324737961208914
389,13.227691405732422
390,12.980315831113622
391,53469775.55424286
452,0.0
477,0.0
502,1062849.6257607234
515,0.0
540,897720.3137648405
553,0.0
578,697664.5359291616
591,0.0
616,275733.35353264529
629,367725.7281200038
654,0.0
667,0.0
692,542438.6964632259
705,0.0
730,353984.09906599079
2,2, 1, 2, 0,20, 0.00,60.00,Wednesday
383,9.478594858112637
384,13.166151062331237
385,11.941441779158915
386,13.555890225345437
387,11.241412377846512
388,10.230774982563507
389,13.173833805212052
390,12.866426159189916
391,0.0
452,2149595.4672321968
477,0.0
502,1087207.241490996
515,0.0
540,872867.1203729309
553,0.0
578,710685.1694229564
591,0.0
616,274935.0249539292
629,305863.53976897968
654,0.0
667,0.0
692,579109.2565472277
705,0.0
730,396571.249565588
2,2, 1, 2, 0,21, 0.00,60.00,Wednesday
383,9.540983871381695
384,13.052732763339249
385,12.15003854781304
386,13.288294683567554
387,11.036111762833093
388,10.15776046156666
389,12.998501366253166
390,12.885233232442772
391,35770530.54106845
452,0.0
477,0.0
502,800410.381012372
515,0.0
540,642293.7877699188
553,0.0
578,655713.9760224815
591,0.0
616,183836.97493341764
629,316786.60562011649
654,0.0
667,0.0
692,549508.4591032827
705,0.0
730,298102.24083206689
2,2, 1, 2, 0,22, 0.00,60.00,Wednesday
383,9.802072083382584
384,12.787392967364213
385,11.857016086652708
386,13.076100038417279
387,10.825887322074055
388,10.015737703193832
389,12.848908992869874
390,12.723036055665635
391,0.0
452,1929969.501719327
477,0.0
502,881114.6155154109
515,0.0
540,729154.0963844542
553,0.0
578,658497.0632421561
591,0.0
616,191678.91984558202
629,271671.2839281844
654,0.0
667,0.0
692,567305.8038205067
705,0.0
730,342017.83859066266
2,2, 1, 2, 0,23, 0.00,60.00,Wednesday
383,9.858124606188757
384,13.38062902853972
385,12.946761098069562
386,12.783000390225963
387,10.561769756205634
388,9.85939167187841
389,12.654622722173177
390,13.00840565266638
391,134917333.4048695
452,0.0
477,0.0
502,187363.5715943001
515,7349.05864292266
540,80323.22320778694
553,0.0
578,631069.8257911926
591,0.0
616,145101.28609408713
629,254989.11293997547
654,0.0
667,0.0
692,565317.7551658829
705,0.0
730,31340.155613943876
2,2, 1, 2, 0,24, 0.00,60.00,Wednesday
383,9.894568793460366
384,13.85976970091458
385,13.603014707487148
386,12.228198259703892
387,10.208403075472284
388,9.708703586114492
389,12.21092268926781
390,13.297059492642838
391,267619693.00909839
452,0.0
477,508453.6486827714
502,0.0
515,696744.321145462
540,0.0
553,0.0
578,534559.3557069124
591,4850.140956633004
616,45045.62048631078
629,239724.51250794257
654,0.0
667,0.0
692,501008.1816234427
705,266613.93278019657
730,0.0
2,3, 1, 3, 0, 1, 0.00,60.00,Thursday
383,6.9693952473238
384,12.264787351617632
385,11.418160778764506
386,17.78457080748349
387,20.455202109635058
388,19.346848816258185
389,17.363097478868295
390,12.487532962405203
391,98381893.27027437
452,0.0
477,0.0
502,929167.9751135386
515,0.0
540,815938.6501695892
553,3944517.2274431518
578,24135.805444250665
591,7709758.198210709
616,143446.73359839247
629,7723548.186344268
654,107428.96105465648
667,3826516.976967016
692,19501.521780356325
705,0.0
730,394258.07952024936
2,3, 1, 3, 0, 2, 0.00,60.00,Thursday
383,6.863598688787114
384,12.280454695059352
385,11.774383281983683
386,17.983518215494635
387,20.20782904722251
388,19.348652037866104
389,17.791532498442188
390,12.441276629534994
391,154589591.97232444
452,0.0
477,0.0
502,615438.7569908757
515,0.0
540,559458.431476845
553,4820507.9466005009
578,0.0
591,9937964.61119492
616,0.0
629,9672765.74951501
654,0.0
667,4602138.680379133
692,0.0
705,0.0
730,262669.49684740297
2,3, 1, 3, 0, 3, 0.00,60.00,Thursday
383,6.750908558851796
384,13.225561439205535
385,12.824313193015567
386,17.99958270822876
387,20.109768287588449
388,19.387788264995476
389,17.882710372524039
390,12.853438593044189
391,359525354.94905218
452,0.0
477,349231.3481666368
502,0.0
515,556712.3431776685
540,0.0
553,3771433.4656464036
578,0.0
591,7553767.262492784
616,0.0
629,7390295.609221796
654,0.0
667,3592504.371996004
692,0.0
705,181432.38942152644
730,0.0
2,3, 1, 3, 0, 4, 0.00,60.00,Thursday
383,6.721348411894967
384,13.28719736832585
385,12.801572903345895
386,18.000148427858876
387,20.01832757946137
388,19.399010433844265
389,17.970038035182808
390,12.929712363964052
391,359342405.59066978
452,0.0
477,321457.3625881404
502,0.0
515,552883.1143612141
540,0.0
553,3325326.464274642
578,0.0
591,6565948.8519253809
616,0.0
629,6419265.6796068749
654,0.0
667,3149904.8375677268
692,0.0
705,168709.0840872691
730,0.0
2,3, 1, 3, 0, 5, 0.00,60.00,Thursday
383,6.718443668439399
384,13.08711557829674
385,12.47764222666287
386,18.000192591360663
387,20.00239860299884
388,19.44958320505236
389,18.028559314820759
390,12.852460724446056
391,323670945.2894895
452,0.0
477,157419.4954808753
502,0.0
515,399911.6980177201
540,0.0
553,3117914.2245064836
578,0.0
591,6090601.218311929
616,0.0
629,5942533.739099791
654,0.0
667,2939737.5075446779
692,0.0
705,89488.89745574235
730,0.0
2,3, 1, 3, 0, 6, 0.00,60.00,Thursday
383,8.044037974307292
384,11.592765510138453
385,10.312980581376105
386,18.000092856154788
387,19.9583800020793
388,19.432142505131723
389,18.004613477410243
390,12.156750069259268
391,0.0
452,1386458.3543770277
477,0.0
502,1040614.711053535
515,0.0
540,798708.0501827587
553,2926871.735598356
578,0.0
591,5670249.191467781
616,0.0
629,5538799.94059466
654,0.0
667,2764967.2460052638
692,0.0
705,0.0
730,477708.609745819
2,3, 1, 3, 0, 7, 0.00,60.00,Thursday
383,6.804930734906125
384,13.69806436661039
385,13.626610393974336
386,18.00003008485728
387,20.040150649845537
388,19.57691951460037
389,18.093429530957076
390,13.178076251653437
391,430854792.0193356
452,0.0
477,670022.6818488357
502,0.0
515,825468.1655142972
540,0.0
553,2943811.9906073447
578,0.0
591,5660953.463832546
616,0.0
629,5495283.964160313
654,0.0
667,2759463.789784719
692,0.0
705,325658.5748521731
730,0.0
2,3, 1, 3, 0, 8, 0.00,60.00,Thursday
383,6.744865781355725
384,14.077771466220657
385,13.68599542553245
386,18.00011482233476
387,20.097201987312809
388,19.67323617923271
389,18.134883915103307
390,13.431938896036688
391,499605343.8161369
452,0.0
477,969113.0404335975
502,0.0
515,1294204.09366334
540,0.0
553,2931937.221873777
578,0.0
591,5599082.975950006
616,0.0
629,5416274.220400553
654,0.0
667,2738229.574531706
692,0.0
705,458763.62276528766
730,0.0
2,3, 1, 3, 0, 9, 0.00,60.00,Thursday
383,6.717930189753621
384,15.900110061980115
385,16.122157110317436
386,15.22220151078665
387,15.470895560709124
388,15.284875510556109
389,15.435565529053373
390,14.368233802457749
391,765417484.5540805
452,0.0
477,2081747.0955766002
502,0.0
515,2410326.4300620185
540,0.0
553,41866.43532339035
578,181930.28218690368
591,37031.60060136151
616,513388.5897792394
629,53602.78868843734
654,391357.60795763399
667,28697.32263253304
692,212703.58168481245
705,1002152.0254699624
730,0.0
2,3, 1, 3, 0,10, 0.00,60.00,Thursday
383,6.7169475206332749
384,15.344666751705196
385,14.975913538506399
386,14.46184158159915
387,14.06454402214028
388,13.937780197136961
389,14.552486488985883
390,14.207807916799464
391,549664839.2447096
452,0.0
477,903055.4479402923
502,0.0
515,1207259.3106411745
540,0.0
553,0.0
578,307737.0982762417
591,0.0
616,481606.9842181996
629,0.0
654,375446.26398667847
667,0.0
692,312766.99123285387
705,489199.0637087482
730,0.0
2,3, 1, 3, 0,11, 0.00,60.00,Thursday
383,6.71695979895987
384,15.026350459703558
385,14.28912958704521
386,13.85844194358176
387,13.258787443086666
388,13.00712560761198
389,13.852225067764737
390,14.211173548549804
391,423745614.1679592
452,0.0
477,213523.21190518933
502,0.0
515,511403.3228131799
540,0.0
553,0.0
578,310305.0675513976
591,0.0
616,366457.6674114837
629,4933.687141045971
654,204618.1672493438
667,0.0
692,291751.56400826296
705,178685.2997935841
730,0.0
2,3, 1, 3, 0,12, 0.00,60.00,Thursday