Program Version,EnergyPlus, Version 9.1.0-08d2e308bb, YMD=2020.02.05 00:42
1,5,Environment Title[],Latitude[deg],Longitude[deg],Time Zone[],Elevation[m]
2,8,Day of Simulation[],Month[],Day of Month[],DST Indicator[1=yes 0=no],Hour[],StartMinute[],EndMinute[],DayType
3,5,Cumulative Day of Simulation[],Month[],Day of Month[],DST Indicator[1=yes 0=no],DayType  ! When Daily Meters Requested
4,2,Cumulative Days of Simulation[],Month[]  ! When Monthly Meters Requested
5,1,Cumulative Days of Simulation[] ! When Run Period Meters Requested
6,1,Calendar Year of Simulation[] ! When Annual Meters Requested
11,9,Electricity:Facility [J] !Monthly [Value,Min,Day,Hour,Minute,Max,Day,Hour,Minute]
End of Data Dictionary
1,RUN PERIOD 1,  33.63, -84.44,  -5.00, 308.00
4,31, 1
11,4270968926.8343546,5029136.95349049, 5,24,60,8191757.644358518,14,17,60
4,59, 2
11,4330411609.460214,5029136.953490491, 1, 3,60,40494463.436007577,24,17,60
4,90, 3
11,4575317230.619062,5029136.953490491, 1,24,60,37763653.395209718,28,16,60
4,120, 4
11,5054361712.615965,5029136.953490491, 1, 3,60,44551920.18974781,14,16,60
4,151, 5
11,10744385735.207077,5029136.953490491, 1, 9,60,50011149.09169243,31,17,60
4,181, 6
11,11772541580.805584,5029136.953490491, 6, 6,60,51510476.88611332,16,18,60
4,212, 7
11,13764500383.48058,5029136.953490491, 6,24,60,53006609.21322532,12,18,60
4,243, 8
11,11839663500.602618,5029136.953490492, 1, 5,60,50949241.79768395, 8,17,60
4,273, 9
11,11264008053.309008,5029136.953490492, 7, 6,60,51574179.50197118, 2,18,60
4,304,10
11,6349850558.3819689,5029136.953490491,13, 3,60,47739787.87704861,10,16,60
4,334,11
11,4220527472.8376247,5029136.953490491, 1, 4,60,9039367.561625077, 6,18,60
4,365,12
11,4333981525.979166,5029136.953490491, 1, 5,60,8882452.240202498, 2,17,60
End of Data
 Number of Records Written=          12
