Program Version,EnergyPlus, Version 9.1.0-08d2e308bb, YMD=2020.02.05 00:41
1,5,Environment Title[],Latitude[deg],Longitude[deg],Time Zone[],Elevation[m]
2,8,Day of Simulation[],Month[],Day of Month[],DST Indicator[1=yes 0=no],Hour[],StartMinute[],EndMinute[],DayType
3,5,Cumulative Day of Simulation[],Month[],Day of Month[],DST Indicator[1=yes 0=no],DayType  ! When Daily Meters Requested
4,2,Cumulative Days of Simulation[],Month[]  ! When Monthly Meters Requested
5,1,Cumulative Days of Simulation[] ! When Run Period Meters Requested
6,1,Calendar Year of Simulation[] ! When Annual Meters Requested
11,9,Electricity:Facility [J] !Monthly [Value,Min,Day,Hour,Minute,Max,Day,Hour,Minute]
End of Data Dictionary
1,RUN PERIOD 1,  33.63, -84.44,  -5.00, 308.00
4,31, 1
11,18555285411.630746,23357139.115102129, 5, 4,60,40272848.70477067,21,13,60
4,59, 2
11,19553790056.243009,23357139.11510213, 3, 9,60,243852881.5495379,24,17,60
4,90, 3
11,20477742099.780267,23357139.11510213, 9, 9,60,228695019.71130429,28,16,60
4,120, 4
11,23566881101.669336,23357139.115102136, 1, 3,60,290434208.5757497,14,16,60
4,151, 5
11,58833372568.759609,23357139.115102136, 2, 7,60,336034175.35920998,31,18,60
4,181, 6
11,66452647965.69457,23357139.115102136, 1, 7,60,345780871.10997936,15,17,60
4,212, 7
11,78401553106.63404,23357139.115102136, 6,24,60,348192641.93843397,12,18,60
4,243, 8
11,65406962883.9717,23357139.115102136, 2,24,60,343971461.4335286, 5,16,60
4,273, 9
11,61124735837.923297,23357139.115102136,27,24,60,344830169.7040889,14,18,60
4,304,10
11,30239276791.314416,23357139.115102136,15, 3,60,325366508.2305618,10,16,60
4,334,11
11,18585883140.910558,23357139.11510213,10, 9,60,42748619.839463587, 7,13,60
4,365,12
11,19034979629.438478,23357139.11510213, 6, 7,60,35757279.94261161,31,13,60
End of Data
 Number of Records Written=          12
