Program Version,EnergyPlus, Version 9.1.0-08d2e308bb, YMD=2020.02.05 00:41
1,5,Environment Title[],Latitude[deg],Longitude[deg],Time Zone[],Elevation[m]
2,8,Day of Simulation[],Month[],Day of Month[],DST Indicator[1=yes 0=no],Hour[],StartMinute[],EndMinute[],DayType
3,5,Cumulative Day of Simulation[],Month[],Day of Month[],DST Indicator[1=yes 0=no],DayType  ! When Daily Report Variables Requested
4,2,Cumulative Days of Simulation[],Month[]  ! When Monthly Report Variables Requested
5,1,Cumulative Days of Simulation[] ! When Run Period Report Variables Requested
6,1,Calendar Year of Simulation[] ! When Annual Report Variables Requested
383,1,THERMAL ZONE 1,Zone Mean Air Temperature [C] !Hourly
384,1,THERMAL ZONE 2,Zone Mean Air Temperature [C] !Hourly
385,1,THERMAL ZONE 3,Zone Mean Air Temperature [C] !Hourly
386,1,THERMAL ZONE 4,Zone Mean Air Temperature [C] !Hourly
387,1,THERMAL ZONE 5,Zone Mean Air Temperature [C] !Hourly
388,1,THERMAL ZONE 6,Zone Mean Air Temperature [C] !Hourly
389,1,THERMAL ZONE 7,Zone Mean Air Temperature [C] !Hourly
390,1,THERMAL ZONE 8,Zone Mean Air Temperature [C] !Hourly
391,1,THERMAL ZONE 1,Zone Air System Sensible Heating Energy [J] !Hourly
452,1,THERMAL ZONE 1,Zone Air System Sensible Cooling Energy [J] !Hourly
477,1,THERMAL ZONE 2,Zone Air System Sensible Heating Energy [J] !Hourly
502,1,THERMAL ZONE 2,Zone Air System Sensible Cooling Energy [J] !Hourly
515,1,THERMAL ZONE 3,Zone Air System Sensible Heating Energy [J] !Hourly
540,1,THERMAL ZONE 3,Zone Air System Sensible Cooling Energy [J] !Hourly
553,1,THERMAL ZONE 4,Zone Air System Sensible Heating Energy [J] !Hourly
578,1,THERMAL ZONE 4,Zone Air System Sensible Cooling Energy [J] !Hourly
591,1,THERMAL ZONE 5,Zone Air System Sensible Heating Energy [J] !Hourly
616,1,THERMAL ZONE 5,Zone Air System Sensible Cooling Energy [J] !Hourly
629,1,THERMAL ZONE 6,Zone Air System Sensible Heating Energy [J] !Hourly
654,1,THERMAL ZONE 6,Zone Air System Sensible Cooling Energy [J] !Hourly
667,1,THERMAL ZONE 7,Zone Air System Sensible Heating Energy [J] !Hourly
692,1,THERMAL ZONE 7,Zone Air System Sensible Cooling Energy [J] !Hourly
705,1,THERMAL ZONE 8,Zone Air System Sensible Heating Energy [J] !Hourly
730,1,THERMAL ZONE 8,Zone Air System Sensible Cooling Energy [J] !Hourly
11,9,Electricity:Facility [J] !Monthly [Value,Min,Day,Hour,Minute,Max,Day,Hour,Minute]
End of Data Dictionary
1,RUN PERIOD 1,  33.63, -84.44,  -5.00, 308.00
2,1, 1, 1, 0, 1, 0.00,60.00,Tuesday
383,5.800403775812747
384,13.73579141882564
385,12.924335874239678
386,17.527299846601115
387,21.72628475353082
388,20.522186324590739
389,17.628696374698323
390,13.041073015691108
391,48321917.82635935
452,0.0
477,0.0
502,307402.04470008556
515,0.0
540,191857.93914028019
553,5253626.959237469
578,0.0
591,11433795.025766343
616,0.0
629,10793323.285817188
654,0.0
667,4905974.0366276609
692,0.0
705,1361.55345484021
730,102752.00713236447
2,1, 1, 1, 0, 2, 0.00,60.00,Tuesday
383,5.766117648502039
384,13.539610248355637
385,12.826231729346059
386,17.969914748196055
387,21.85688027758963
388,20.777338323844857
389,18.0027371459755
390,12.896673772743846
391,51136159.316998098
452,0.0
477,0.0
502,203285.49197970297
515,0.0
540,82365.9710469774
553,6088667.546310866
578,0.0
591,13806837.87107312
616,0.0
629,12844130.698611536
654,0.0
667,5702896.551097199
692,0.0
705,0.0
730,45868.89619920726
2,1, 1, 1, 0, 3, 0.00,60.00,Tuesday
383,5.751841161279793
384,13.093945907810645
385,12.087951603573835
386,17.99877029989438
387,21.469578038766998
388,20.545212508059217
389,18.06380655770871
390,12.676920210193045
391,49809105.523545179
452,0.0
477,0.0
502,152705.79075185245
515,56518.92275966893
540,0.0
553,4338790.514102945
578,0.0
591,9440526.696190095
616,0.0
629,8876327.214232006
654,0.0
667,4055490.9001306539
692,0.0
705,0.0
730,42058.22103693447
2,1, 1, 1, 0, 4, 0.00,60.00,Tuesday
383,5.748511655306562
384,12.855943298307356
385,11.62770666276825
386,17.999966473694675
387,21.111178303840185
388,20.279639730917457
389,18.069824525705309
390,12.517627194998714
391,43626912.9697333
452,0.0
477,0.0
502,265742.3299659642
515,0.0
540,33196.9947440552
553,3506144.8221700356
578,0.0
591,7454751.1130598769
616,0.0
629,7060582.306944566
654,0.0
667,3273720.7456475945
692,0.0
705,0.0
730,117903.6690455965
2,1, 1, 1, 0, 5, 0.00,60.00,Tuesday
383,5.746544840998691
384,12.027957694769299
385,10.325276662072695
386,18.000077485623934
387,20.914245409956434
388,20.16636267779493
389,18.11305873484403
390,12.009519256992
391,18803580.861333539
452,0.0
477,0.0
502,743082.030789572
515,0.0
540,528821.6598454984
553,3128723.388845363
578,0.0
591,6573872.916064697
616,0.0
629,6233661.249657773
654,0.0
667,2911084.4593971294
692,0.0
705,0.0
730,436757.879381734
2,1, 1, 1, 0, 6, 0.00,60.00,Tuesday
383,5.745725630031292
384,12.092082831680314
385,10.47524829694683
386,18.00014782306246
387,20.79760404665163
388,20.105321650259876
389,18.141542039567797
390,12.02239628722913
391,30032460.10792643
452,0.0
477,0.0
502,466618.438931351
515,0.0
540,194305.62651677346
553,2932142.296637343
578,0.0
591,6123085.833232498
616,0.0
629,5804018.130228212
654,0.0
667,2721000.6295860467
692,0.0
705,0.0
730,267571.7608768333
2,1, 1, 1, 0, 7, 0.00,60.00,Tuesday
383,5.7452111798896869
384,13.631980650210333
385,12.56579138296542
386,18.00011414519993
387,20.773433169728326
388,20.11722287607812
389,18.165997449993389
390,13.005103040006262
391,83860907.40911635
452,0.0
477,618426.8515732801
502,0.0
515,1064967.6983266108
540,0.0
553,2841940.3461573116
578,0.0
591,5899540.650242473
616,0.0
629,5586658.275263138
654,0.0
667,2631467.8052369926
692,0.0
705,437596.8579453549
730,0.0
2,1, 1, 1, 0, 8, 0.00,60.00,Tuesday
383,5.745558330829802
384,13.317343954161732
385,11.846810470742263
386,18.00025447590714
387,20.78928648383377
388,20.158390970901807
389,18.180439398517465
390,12.861369500416725
391,66124277.63954997
452,0.0
477,223491.47746820068
502,0.0
515,657866.1814881621
540,0.0
553,2800631.481421376
578,0.0
591,5782006.137933392
616,0.0
629,5469166.030690136
654,0.0
667,2589839.3714741745
692,0.0
705,184605.1720692296
730,0.0
2,1, 1, 1, 0, 9, 0.00,60.00,Tuesday
383,5.745532133442676
384,13.344141276852774
385,11.806072765657167
386,14.997226312399516
387,15.341786692551175
388,15.104012336538157
389,15.330365034781798
390,12.874812727597366
391,61115635.76841676
452,0.0
477,89511.43976345555
502,0.0
515,502172.7730214125
540,0.0
553,0.0
578,390389.8033374967
591,0.0
616,1221993.1326812644
629,0.0
654,968345.2599912747
667,0.0
692,433486.35943198346
705,106996.06459560212
730,0.0
2,1, 1, 1, 0,10, 0.00,60.00,Tuesday
383,5.745654520847914
384,14.247198924242288
385,12.971483250404326
386,14.00807098108495
387,13.278722398089047
388,13.146639023058265
389,14.328511368743439
390,13.494605016180782
391,91848494.15074015
452,0.0
477,704101.3334927202
502,0.0
515,1227997.7624927469
540,0.0
553,0.0
578,554644.9578343399
591,0.0
616,1044722.5957227176
629,0.0
654,863859.7308148823
667,0.0
692,584942.7512935926
705,502678.06235556976
730,0.0
2,1, 1, 1, 0,11, 0.00,60.00,Tuesday
383,5.74568426013163
384,13.718142168495178
385,12.062936303350883
386,13.12174877271519
387,12.210944505283479
388,12.105641772388044
389,13.445305252870237
390,13.185409609520298
391,65810146.37008596
452,0.0
477,137211.51627082018
502,0.0
515,593093.7808099645
540,0.0
553,0.0
578,519343.92495724596
591,0.0
616,848989.2324301712
629,0.0
654,703044.0136267467
667,0.0
692,552465.9265776855
705,142473.79315088909
730,0.0
2,1, 1, 1, 0,12, 0.00,60.00,Tuesday
383,5.745769339405452
384,13.998400142899122
385,12.283792769329257
386,12.958551500901895
387,11.61805983339745
388,11.291701230743117
389,13.30677902008799
390,13.073424728697312
391,55869499.4770997
452,0.0
477,0.0
502,173418.22922210778
515,207830.3941340266
540,0.0
553,0.0
578,592790.787898198
591,0.0
616,798414.7146738092
629,0.0
654,546300.7052675178
667,0.0
692,626328.1947863018
705,5235.966099256962
730,1009.8770613879651
2,1, 1, 1, 0,13, 0.00,60.00,Tuesday
383,5.745798032317233
384,14.392299298276939
385,12.642080790414099
386,12.598462447139039
387,11.096060683789962
388,10.808632986626165
389,12.919860652802904
390,13.391592384615333
391,72118303.60479424
452,0.0
477,167558.91897540465
502,0.0
515,656137.9448735513
540,0.0
553,0.0
578,557722.0876145032
591,0.0
616,614371.2992037744
629,0.0
654,402029.80692828239
667,0.0
692,588014.4869910139
705,214354.84499277053
730,0.0
2,1, 1, 1, 0,14, 0.00,60.00,Tuesday
383,5.746590691442622
384,14.358515443142896
385,12.470589151909678
386,12.352199790301098
387,10.689593936904882
388,10.362286796990468
389,12.649420856813784
390,13.403748411733439
391,64551526.57814869
452,0.0
477,0.0
502,20938.38903435983
515,448034.38957793186
540,0.0
553,0.0
578,556316.9112144252
591,0.0
616,519781.5489113983
629,0.0
654,297609.27086225207
667,0.0
692,581804.8839141637
705,97743.13214720921
730,0.0
2,1, 1, 1, 0,15, 0.00,60.00,Tuesday
383,5.746081278922331
384,13.670445798291827
385,11.443335527702573
386,12.198650100378512
387,10.386148798165648
388,10.050626176162217
389,12.491125275166315
390,12.917555812283608
391,36279475.41480328
452,0.0
477,0.0
502,614300.4464325947
515,0.0
540,231078.967026932
553,0.0
578,576728.5687927937
591,0.0
616,488392.4413467309
629,0.0
654,265487.39818502709
667,0.0
692,599985.7230213201
705,0.0
730,275945.2970968238
2,1, 1, 1, 0,16, 0.00,60.00,Tuesday
383,5.745838525429621
384,12.984199069909196
385,10.690808806383739
386,12.16106345022278
387,10.215366288553538
388,9.815351339214347
389,12.453568956594907
390,12.435044688057105
391,12842940.994098232
452,0.0
477,0.0
502,1083469.3067517444
515,0.0
540,818866.8065728846
553,0.0
578,591875.4167067562
591,0.0
616,452607.0025724706
629,0.0
654,201005.92082359296
667,0.0
692,614197.1038643839
705,0.0
730,576497.9300126971
2,1, 1, 1, 0,17, 0.00,60.00,Tuesday
383,9.890565731886218
384,15.576226186476946
385,14.55244363461129
386,12.16437554042474
387,10.08875310808098
388,9.59116867127647
389,12.587763859438292
390,13.836986722583266
391,64259728.30978581
452,0.0
477,542504.2017257453
502,0.0
515,956785.0670931452
540,0.0
553,0.0
578,616669.4122124779
591,0.0
616,443988.0066309131
629,0.0
654,143992.5064478193
667,0.0
692,663932.4523387391
705,521050.9417714951
730,0.0
2,1, 1, 1, 0,18, 0.00,60.00,Tuesday
383,10.227085136141066
384,15.958052479648727
385,15.03064520202077
386,12.069729582940866
387,9.87853148094024
388,9.375951096001974
389,12.523529924951994
390,14.179876035326146
391,78962014.72201193
452,0.0
477,912128.2133728779
502,0.0
515,1408772.8151992998
540,0.0
553,0.0
578,633544.562255478
591,0.0
616,422749.4729618357
629,0.0
654,122544.57578661158
667,0.0
692,685912.2862891905
705,743826.980015263
730,0.0
2,1, 1, 1, 0,19, 0.00,60.00,Tuesday
383,10.298425676934329
384,15.53265723163531
385,14.50338164685327
386,11.966958261914206
387,9.669630921178069
388,9.164626242704676
389,12.466225078030583
390,13.919376100866613
391,49739119.960732888
452,0.0
477,257356.06236513216
502,0.0
515,590712.4885546647
540,0.0
553,0.0
578,652460.7024370884
591,0.0
616,412248.4362766988
629,0.0
654,111965.66646711795
667,0.0
692,712851.8696217218
705,338136.6222826758
730,0.0
2,1, 1, 1, 0,20, 0.00,60.00,Tuesday
383,10.331574111037029
384,15.489844082943853
385,14.433908968099136
386,11.745009721304506
387,9.34434007596326
388,8.900407376304547
389,12.293140871261674
390,13.907440296042076
391,50601641.58634743
452,0.0
477,294710.79963475457
502,0.0
515,645467.7643343004
540,0.0
553,0.0
578,666390.6196747838
591,0.0
616,390249.72985758629
629,0.0
654,123251.31511461659
667,0.0
692,735801.7566515689
705,356639.4089685151
730,0.0
2,1, 1, 1, 0,21, 0.00,60.00,Tuesday
383,10.349485142056953
384,15.619337389583471
385,14.93708493137115
386,11.492974264749492
387,9.001017766946014
388,8.631451271195879
389,12.017117873645973
390,14.060851073839232
391,66133719.561050388
452,0.0
477,672948.4064823425
502,0.0
515,1038633.6350144956
540,0.0
553,0.0
578,683132.6109633294
591,0.0
616,382540.2213234176
629,0.0
654,153981.40878504865
667,0.0
692,746644.4180766031
705,577259.428942818
730,0.0
2,1, 1, 1, 0,22, 0.00,60.00,Tuesday
383,10.358068803283523
384,15.819257241704055
385,15.403393492310459
386,11.291573370488982
387,8.70528558398125
388,8.348707945618468
389,11.824795220347035
390,14.177538502415484
391,76543904.18303868
452,0.0
477,903697.9016345309
502,0.0
515,1268852.177674512
540,0.0
553,0.0
578,711867.1256889057
591,0.0
616,404677.6975028333
629,0.0
654,180276.8442555967
667,0.0
692,775419.7944438192
705,723119.166573111
730,0.0
2,1, 1, 1, 0,23, 0.00,60.00,Tuesday
383,10.361932152862165
384,15.676609930320705
385,15.350117199760167
386,11.073776190480974
387,8.405905345276196
388,8.077642008111177
389,11.568785460445444
390,14.10490860173876
391,73842060.0605222
452,0.0
477,862856.8112096723
502,0.0
515,1193741.261304486
540,0.0
553,0.0
578,726932.2671587636
591,0.0
616,398107.8656864844
629,0.0
654,188744.55448123633
667,0.0
692,781809.6760553992
705,690885.4289555438
730,0.0
2,1, 1, 1, 0,24, 0.00,60.00,Tuesday
383,10.363941051732308
384,15.249140809592369
385,15.102964361742768
386,10.536650933193553
387,7.980925216729542
388,7.800785249738031
389,10.969471014012456
390,14.005281525186409
391,72058102.90216214
452,0.0
477,900782.539422617
502,0.0
515,1197266.899981808
540,0.0
553,0.0
578,672567.47794016
591,0.0
616,318858.60094720529
629,0.0
654,193006.79837878748
667,0.0
692,718243.6681436182
705,675462.5392098385
730,0.0
2,2, 1, 2, 0, 1, 0.00,60.00,Wednesday
383,5.801907177725157
384,13.773038398857711
385,13.02467692689004
386,17.516094263499768
387,21.76644494049318
388,20.578168143709016
389,17.667947914640899
390,13.022177678536212
391,52012941.94118498
452,0.0
477,0.0
502,217725.03479991493
515,2685.762924719344
540,94950.15559877156
553,5306441.128387381
578,0.0
591,11542958.105369332
616,0.0
629,10882517.544728086
654,0.0
667,4945326.1115061449
692,0.0
705,2764.553799872042
730,44773.403546961505
2,2, 1, 2, 0, 2, 0.00,60.00,Wednesday
383,5.764265810387851
384,12.950446338105286
385,12.006864343950923
386,17.98829464788293
387,22.005172967837937
388,20.92742681076634
389,18.06605470941114
390,12.458626983908538
391,35355031.70884276
452,0.0
477,0.0
502,493129.21599170487
515,0.0
540,397990.80087534818
553,6436466.19258027
578,0.0
591,14646836.295256392
616,0.0
629,13591349.68962369
654,0.0
667,6020006.1867995
692,0.0
705,0.0
730,234544.64700676409
2,2, 1, 2, 0, 3, 0.00,60.00,Wednesday
383,5.754098200245139
384,13.077650323486586
385,12.18182548059228
386,17.999410088139283
387,21.656083310315336
388,20.719678060649494
389,18.103742561191689
390,12.531551826398257
391,54850340.48595187
452,0.0
477,0.0
502,18180.556013658043
515,201908.6991183458
540,0.0
553,4607419.1831902679
578,0.0
591,10041459.449405799
616,0.0
629,9417582.756842416
654,0.0
667,4299475.134335125
692,0.0
705,52233.33612321709
730,0.0
2,2, 1, 2, 0, 4, 0.00,60.00,Wednesday
383,5.7481823905240099
384,12.261034394886322
385,10.847467691303593
386,18.00010505736363
387,21.311551849735847
388,20.47560395739959
389,18.114343563183917
390,12.01061657411799
391,31467908.2398559
452,0.0
477,0.0
502,461620.30746653737
515,0.0
540,239204.80202911638
553,3684978.527723631
578,0.0
591,7811623.484024202
616,0.0
629,7380560.729222484
654,0.0
667,3432471.509973381
692,0.0
705,0.0
730,243777.40234148174
2,2, 1, 2, 0, 5, 0.00,60.00,Wednesday
383,5.7464075255946069
384,13.124445124193797
385,12.175723776850703
386,18.000100783973296
387,21.13629415674279
388,20.370845342674174
389,18.13651105684787
390,12.572137395261012
391,66346572.60958113
452,0.0
477,267017.6827225772
502,0.0
515,582654.6109341967
540,0.0
553,3332508.8266492376
578,0.0
591,6984210.499381926
616,0.0
629,6607919.935392061
654,0.0
667,3097462.8123191187
692,0.0
705,221395.03477257526
730,0.0
2,2, 1, 2, 0, 6, 0.00,60.00,Wednesday
383,5.745809136020152
384,12.732303232065912
385,11.302054043344129
386,18.00013498574038
387,21.05933837867415
388,20.341442445548343
389,18.15631675463796
390,12.3419862914052
391,52436113.75359836
452,0.0
477,0.0
502,14495.002557122325
515,341070.1317872978
540,0.0
553,3158918.5828114377
578,0.0
591,6571409.024307435
616,0.0
629,6216192.646005511
654,0.0
667,2930682.2195078178
692,0.0
705,36443.74756480367
730,0.0
2,2, 1, 2, 0, 7, 0.00,60.00,Wednesday
383,5.745773866159993
384,12.630014740559219
385,11.072177992020649
386,18.000151267073158
387,21.020744717211274
388,20.32683515414586
389,18.153184655131925
390,12.261797990182999
391,46952435.15788175
452,0.0
477,0.0
502,135621.12434506767
515,217094.62084801746
540,0.0
553,3042820.7791386495
578,0.0
591,6288021.445738113
616,0.0
629,5951645.54241086
654,0.0
667,2822450.5824064596
692,0.0
705,0.0
730,37646.39705707084
2,2, 1, 2, 0, 8, 0.00,60.00,Wednesday
383,5.745702554547629
384,12.083318206855094
385,10.201017826133079
386,18.00011520601553
387,21.037174689433848
388,20.37350199878404
389,18.1660669435118
390,11.937975134045758
391,29593238.546587588
452,0.0
477,0.0
502,475643.0650447887
515,0.0
540,139394.57143409059
553,2997036.7414229915
578,0.0
591,6158311.714157574
616,0.0
629,5820828.324182775
654,0.0
667,2776905.0641516216
692,0.0
705,0.0
730,264173.94794459376
2,2, 1, 2, 0, 9, 0.00,60.00,Wednesday
383,5.745654776206637
384,11.615747454945464
385,9.3689377522065
386,14.84550638200117
387,15.281103091815393
388,15.028618907235824
389,15.156920519703182
390,11.640887913080173
391,13860828.91423785
452,0.0
477,0.0
502,789295.6147496774
515,0.0
540,451824.5839502124
553,0.0
578,429093.89983878747
591,0.0
616,1375420.787948502
629,0.0
654,1097590.3547342383
667,0.0
692,465373.7921973567
705,0.0
730,469078.33332341766
2,2, 1, 2, 0,10, 0.00,60.00,Wednesday
383,5.745739190241059
384,11.8927936686348
385,9.735963643999482
386,13.89875112011424
387,13.233815472897025
388,13.081471459283432
389,14.177237062142588
390,11.839540633844106
391,26097529.686980215
452,0.0
477,0.0
502,528659.4482406068
515,0.0
540,138595.46955932948
553,0.0
578,555133.7720083271
591,0.0
616,1082640.684559763
629,0.0
654,887396.7482167851
667,0.0
692,576905.1978051725
705,0.0
730,306091.75869906277
2,2, 1, 2, 0,11, 0.00,60.00,Wednesday
383,5.745783217510549
384,11.68047189010041
385,9.24682696287199
386,13.101334630344285
387,12.326547117916583
388,12.178979457510515
389,13.358705945791633
390,11.768790886124226
391,16356233.208990053
452,0.0
477,0.0
502,738042.0987609378
515,0.0
540,338691.1630753759
553,0.0
578,454435.624101644
591,0.0
616,755530.08023336
629,0.0
654,598426.5210653705
667,0.0
692,478205.714340292
705,0.0
730,446069.71685944407
2,2, 1, 2, 0,12, 0.00,60.00,Wednesday
383,5.745765833820498
384,12.301880778690853
385,9.950990256390102
386,13.05165757913612
387,11.832292450024323
388,11.467515359470767
389,13.320659581983211
390,11.949562710895844
391,18795336.60869933
452,0.0
477,0.0
502,797014.0413393092
515,0.0
540,435405.7905365046
553,0.0
578,498119.31621437837
591,0.0
616,618154.5065872474
629,0.0
654,366266.2827804759
667,0.0
692,521525.70727883387
705,0.0
730,430054.6617765589
2,2, 1, 2, 0,13, 0.00,60.00,Wednesday
383,5.746629476003424
384,13.04302336404076
385,10.249654010425859
386,13.263692444239983
387,11.725571379032367
388,11.112982646517834
389,13.05340380435091
390,12.203444434765796
391,20177999.061286667
452,0.0
477,0.0
502,907085.0734638113
515,0.0
540,465423.8858134095
553,0.0
578,550692.9413062144
591,0.0
616,575281.9329590664
629,0.0
654,202715.58014237535
667,0.0
692,473843.11726005628
705,0.0
730,438752.238948902
2,2, 1, 2, 0,14, 0.00,60.00,Wednesday
383,5.7465461617965689
384,13.321770821129045
385,10.25765872450382
386,13.507651090875532
387,11.751881186463578
388,10.94513469803722
389,13.009039418678168
390,12.277287459449042
391,9579248.295470963
452,0.0
477,0.0
502,1234680.5199604396
515,0.0
540,819147.6998350573
553,0.0
578,589007.1868470821
591,0.0
616,552339.304668053
629,0.0
654,84035.72510410578
667,0.0
692,451402.96251032585
705,0.0
730,608489.0212797175
2,2, 1, 2, 0,15, 0.00,60.00,Wednesday
383,5.7462983269408929
384,13.561664958001078
385,10.498224361022372
386,13.756600693171823
387,11.834115601057155
388,10.914188772378985
389,13.129853790160733
390,12.457301888541793
391,9820572.125602819
452,0.0
477,0.0
502,1275942.7088822169
515,0.0
540,872134.4307861455
553,0.0
578,610469.0188688469
591,0.0
616,513916.0013561406
629,7490.650748484859
654,0.0
667,0.0
692,445565.29443825196
705,0.0
730,625894.8464747454
2,2, 1, 2, 0,16, 0.00,60.00,Wednesday
383,6.014405699804113
384,13.704134773892834
385,10.899014528908499
386,14.005876027324437
387,12.001581827974098
388,10.96522063282756
389,13.401892551918959
390,12.564617638997497
391,4440776.164135425
452,0.0
477,0.0
502,1390158.4157285758
515,0.0
540,1084096.3502555998
553,0.0
578,624710.2975281528
591,0.0
616,504693.8172425631
629,74656.76121396004
654,0.0
667,0.0
692,463503.7242100092
705,0.0
730,689292.5839073446
2,2, 1, 2, 0,17, 0.00,60.00,Wednesday
383,8.520279268670305
384,14.637983789701656
385,12.303346485990933
386,14.308324776033683
387,12.1995155469974
388,11.038227110994918
389,13.85349966489105
390,13.133916307599641
391,9264425.286024668
452,0.0
477,0.0
502,958348.0556673145
515,0.0
540,646294.602355515
553,0.0
578,644710.6208519348
591,0.0
616,497881.8898249838
629,143916.57323757915
654,0.0
667,0.0
692,512456.43125133108
705,0.0
730,392205.50311369329
2,2, 1, 2, 0,18, 0.00,60.00,Wednesday
383,9.548862400692025
384,15.062320426530551
385,12.880481585410676
386,14.446313967612854
387,12.234807463071995
388,11.083149917244631
389,14.08498556001106
390,13.478979867372237
391,8818280.531035837
452,0.0
477,0.0
502,851308.3983318945
515,0.0
540,546981.9114761377
553,0.0
578,659312.8139674383
591,0.0
616,477963.19696407907
629,156733.06665759936
654,0.0
667,0.0
692,545087.4651313375
705,0.0
730,319913.3287005844
2,2, 1, 2, 0,19, 0.00,60.00,Wednesday
383,9.810840766150907
384,15.044844250852352
385,13.1013498224497
386,14.43624355025057
387,12.145581816219126
388,11.040206129549312
389,14.194587853236833
390,13.535741793186942
391,7827365.128915186
452,0.0
477,0.0
502,822079.9964222689
515,0.0
540,569405.8556324141
553,0.0
578,676929.995701924
591,0.0
616,479377.6141115107
629,132039.87084485973
654,0.0
667,0.0
692,585842.8512838571
705,0.0
730,311239.5456754441
2,2, 1, 2, 0,20, 0.00,60.00,Wednesday
383,10.82898794121187
384,14.83484397996625
385,12.802247195151047
386,14.292320609248768
387,11.916244116619279
388,10.919242626816017
389,14.146480342409248
390,13.526119197046654
391,0.0
452,1159062.2298195637
477,0.0
502,813090.8344240117
515,0.0
540,535460.1139934323
553,0.0
578,703927.41685091
591,0.0
616,501990.61085021038
629,57016.094518733546
654,0.0
667,0.0
692,630568.355691107
705,0.0
730,329111.20639930499
2,2, 1, 2, 0,21, 0.00,60.00,Wednesday
383,11.108048993215919
384,14.7836530792399
385,13.058900890516384
386,14.074283029381839
387,11.716728856258209
388,10.84246466972483
389,13.999934100034974
390,13.648200583797065
391,5682275.6004012
452,0.0
477,0.0
502,572291.2731524409
515,0.0
540,302890.80117599017
553,0.0
578,666084.0734135533
591,0.0
616,413172.2681665009
629,73997.57441225629
654,0.0
667,0.0
692,609563.2589486303
705,0.0
730,206919.71563803886
2,2, 1, 2, 0,22, 0.00,60.00,Wednesday
383,11.869699028569777
384,14.677887097994331
385,13.052135543985499
386,13.926353150467726
387,11.537179684664102
388,10.70717559083392
389,13.897510754620147
390,13.604098190447213
391,0.0
452,570686.6571591118
477,0.0
502,563610.9905806087
515,0.0
540,316685.92902227179
553,0.0
578,688226.0998244563
591,0.0
616,453633.8460369222
629,15518.291680312268
654,0.0
667,0.0
692,639542.4751002103
705,0.0
730,208921.75507301256
2,2, 1, 2, 0,23, 0.00,60.00,Wednesday
383,11.096861082827605
384,14.993647510637917
385,13.772867708271179
386,13.702474128466485
387,11.344414379383302
388,10.608310747299104
389,13.738249783455558
390,13.886579675609486
391,22260629.292203584
452,0.0
477,0.0
502,188517.6561720888
515,68091.54719343723
540,3585.181124679275
553,0.0
578,654904.6702778329
591,0.0
616,383982.0797329607
629,30651.773011216297
654,627.7964144924226
667,0.0
692,621374.680587792
705,24550.734511926
730,8103.279352112144
2,2, 1, 2, 0,24, 0.00,60.00,Wednesday
383,10.721649423813567
384,15.067762950831327
385,14.332677739163378
386,13.192733436666626
387,11.030799663393055
388,10.491687886448713
389,13.231811420879545
390,14.1616850015184
391,43688825.71844426
452,0.0
477,275524.6515816357
502,0.0
515,540002.7974645619
540,0.0
553,0.0
578,572136.4241412848
591,0.0
616,277688.0898783927
629,25129.265068487482
654,0.0
667,0.0
692,544426.6156962372
705,267321.5272435331
730,0.0
2,3, 1, 3, 0, 1, 0.00,60.00,Thursday
383,6.465651186763379
384,13.350707624339766
385,11.904914227230087
386,17.814245727521038
387,20.039509279211317
388,18.652597965582243
389,17.47837306011285
390,13.065843151529144
391,10221284.48392021
452,0.0
477,0.0
502,1081622.871542062
515,0.0
540,1029549.6750355357
553,2866239.397021788
578,12393.956165732758
591,6350831.9677271409
616,109199.78157746222
629,6327088.784501175
654,66308.27244478995
667,2753382.9111198738
692,9250.793683202752
705,0.0
730,606060.1076879496
2,3, 1, 3, 0, 2, 0.00,60.00,Thursday
383,6.0321622001124439
384,12.975732843714564
385,11.59437614831431
386,17.992717757099979
387,20.08772537474147
388,19.002437125436207
389,17.813295053854696
390,12.860876964111938
391,16677037.51915265
452,0.0
477,0.0
502,926796.2459630413
515,0.0
540,846371.817983506
553,3747242.426904044
578,0.0
591,8664780.690952726
616,0.0
629,8266756.550626484
654,0.0
667,3550254.8531295007
692,0.0
705,0.0
730,534221.9665416528
2,3, 1, 3, 0, 3, 0.00,60.00,Thursday
383,5.819441828331004
384,13.499209884579136
385,12.475562004051085
386,17.99979162709392
387,19.942437791742507
388,18.997591072563624
389,17.871919913784855
390,13.12990861510202
391,45583142.222108397
452,0.0
477,0.0
502,326513.4299303003
515,0.0
540,163157.75653810288
553,2741974.6013692046
578,0.0
591,6108022.732907295
616,0.0
629,5918227.048427592
654,0.0
667,2597143.0431335528
692,0.0
705,0.0
730,150271.53703063279
2,3, 1, 3, 0, 4, 0.00,60.00,Thursday
383,5.759251408205356
384,13.474853245756428
385,12.227592149770726
386,18.00012429058783
387,19.8467801326679
388,19.010549569027224
389,17.934116156159367
390,13.15932141640576
391,45833325.342878919
452,0.0
477,0.0
502,327086.12513801568
515,0.0
540,107646.75654652715
553,2359360.4482975259
578,0.0
591,5156410.763757171
616,0.0
629,5015686.212251002
654,0.0
667,2225833.400011735
692,0.0
705,0.0
730,156805.26558028858
2,3, 1, 3, 0, 5, 0.00,60.00,Thursday
383,5.750673177246776
384,13.250072283446333
385,11.888446186567358
386,18.00016000273041
387,19.811516324900184
388,19.051665345361444
389,17.98124108815079
390,13.05499263610043
391,41178838.647032018
452,0.0
477,0.0
502,404604.96771429028
515,0.0
540,178756.9157309092
553,2171293.5528449269
578,0.0
591,4681913.797318153
616,0.0
629,4554424.900788236
654,0.0
667,2039948.868733464
692,0.0
705,0.0
730,216476.21185725538
2,3, 1, 3, 0, 6, 0.00,60.00,Thursday
383,7.724063340402679
384,12.420108092481027
385,10.560106165747927
386,18.000092387332729
387,19.767935897079103
388,19.05407121089098
389,17.979210751813839
390,12.529820184941354
391,0.0
452,1535015.437626623
477,0.0
502,956400.7080021779
515,0.0
540,764329.4436095831
553,2032694.2301865668
578,0.0
591,4342111.560785774
616,0.0
629,4228492.191757334
654,0.0
667,1910379.7694991492
692,0.0
705,0.0
730,577545.0969230929
2,3, 1, 3, 0, 7, 0.00,60.00,Thursday
383,5.881371821643299
384,13.69792075608055
385,12.697824292649484
386,18.000027536881114
387,19.823108086947348
388,19.165826050021889
389,18.04034350424384
390,13.353120103489431
391,56653041.66734237
452,0.0
477,37641.85743475656
502,106113.53713140733
515,163374.73287548717
540,0.0
553,2025681.9523981619
578,0.0
591,4292422.705547022
616,0.0
629,4155634.472392751
654,0.0
667,1891422.3663613927
692,0.0
705,26430.867176459516
730,27107.430316353726
2,3, 1, 3, 0, 8, 0.00,60.00,Thursday
383,5.786279319962132
384,13.975997144886716
385,12.692225812517613
386,18.00009263346312
387,19.868749717715859
388,19.24971887595325
389,18.072633376448807
390,13.58157618907557
391,65929783.37586632
452,0.0
477,97429.05454115288
502,0.0
515,448519.1298318053
540,0.0
553,2012072.2066476467
578,0.0
591,4230779.478329815
616,0.0
629,4081397.0248278637
654,0.0
667,1872140.7492604054
692,0.0
705,103031.04518535869
730,0.0
2,3, 1, 3, 0, 9, 0.00,60.00,Thursday
383,5.7472668272633939
384,15.27858912067756
385,14.426207503235297
386,15.80943151961516
387,15.851542281514336
388,15.534829968059598
389,15.934569470365494
390,14.424575551746216
391,102516089.32898693
452,0.0
477,777020.6911897889
502,0.0
515,1215589.486722296
540,0.0
553,512.4481227126705
578,288672.95730141058
591,0.0
616,781627.1378816922
629,0.0
654,536195.0319088748
667,0.0
692,295538.6820916124
705,557417.911145368
730,0.0
2,3, 1, 3, 0,10, 0.00,60.00,Thursday
383,5.745907892716637
384,14.907736862501882
385,13.462984873152302
386,15.216408209919809
387,14.510724281507429
388,14.244636785084872
389,15.232013347653105
390,14.224996777311257
391,72002352.03585112
452,0.0
477,63711.60523236576
502,0.0
515,445589.78931135588
540,0.0
553,0.0
578,425498.4033655182
591,0.0
616,718552.2326626568
629,0.0
654,505594.1421398182
667,0.0
692,402166.4363662643
705,116369.84002817443
730,0.0
2,3, 1, 3, 0,11, 0.00,60.00,Thursday
383,5.745834736827696
384,14.716870558090239
385,13.098654621728356
386,14.703432371534327
387,13.880017814275089
388,13.56300574388629
389,14.643067852878659
390,14.128146482214572
391,54166692.77148427
452,0.0
477,0.0
502,358169.2628839887
515,0.0
540,54321.51451398281
553,0.0
578,413042.91587737409
591,0.0
616,619013.066530622
629,0.0
654,391192.6748845544
667,0.0
692,375115.95577500268
705,0.0
730,143636.53568428313
2,3, 1, 3, 0,12, 0.00,60.00,Thursday
383,5.745650934863128
384,14.632326781310436
385,12.733769252999842
386,14.867293634904679
387,13.707722445761379
388,13.156787088187976
389,14.803650707591153