Program Version,EnergyPlus, Version 9.1.0-08d2e308bb, YMD=2020.02.05 00:41
1,5,Environment Title[],Latitude[deg],Longitude[deg],Time Zone[],Elevation[m]
2,8,Day of Simulation[],Month[],Day of Month[],DST Indicator[1=yes 0=no],Hour[],StartMinute[],EndMinute[],DayType
3,5,Cumulative Day of Simulation[],Month[],Day of Month[],DST Indicator[1=yes 0=no],DayType  ! When Daily Report Variables Requested
4,2,Cumulative Days of Simulation[],Month[]  ! When Monthly Report Variables Requested
5,1,Cumulative Days of Simulation[] ! When Run Period Report Variables Requested
6,1,Calendar Year of Simulation[] ! When Annual Report Variables Requested
383,1,THERMAL ZONE 1,Zone Mean Air Temperature [C] !Hourly
384,1,THERMAL ZONE 2,Zone Mean Air Temperature [C] !Hourly
385,1,THERMAL ZONE 3,Zone Mean Air Temperature [C] !Hourly
386,1,THERMAL ZONE 4,Zone Mean Air Temperature [C] !Hourly
387,1,THERMAL ZONE 5,Zone Mean Air Temperature [C] !Hourly
388,1,THERMAL ZONE 6,Zone Mean Air Temperature [C] !Hourly
389,1,THERMAL ZONE 7,Zone Mean Air Temperature [C] !Hourly
390,1,THERMAL ZONE 8,Zone Mean Air Temperature [C] !Hourly
391,1,THERMAL ZONE 1,Zone Air System Sensible Heating Energy [J] !Hourly
452,1,THERMAL ZONE 1,Zone Air System Sensible Cooling Energy [J] !Hourly
477,1,THERMAL ZONE 2,Zone Air System Sensible Heating Energy [J] !Hourly
502,1,THERMAL ZONE 2,Zone Air System Sensible Cooling Energy [J] !Hourly
515,1,THERMAL ZONE 3,Zone Air System Sensible Heating Energy [J] !Hourly
540,1,THERMAL ZONE 3,Zone Air System Sensible Cooling Energy [J] !Hourly
553,1,THERMAL ZONE 4,Zone Air System Sensible Heating Energy [J] !Hourly
578,1,THERMAL ZONE 4,Zone Air System Sensible Cooling Energy [J] !Hourly
591,1,THERMAL ZONE 5,Zone Air System Sensible Heating Energy [J] !Hourly
616,1,THERMAL ZONE 5,Zone Air System Sensible Cooling Energy [J] !Hourly
629,1,THERMAL ZONE 6,Zone Air System Sensible Heating Energy [J] !Hourly
654,1,THERMAL ZONE 6,Zone Air System Sensible Cooling Energy [J] !Hourly
667,1,THERMAL ZONE 7,Zone Air System Sensible Heating Energy [J] !Hourly
692,1,THERMAL ZONE 7,Zone Air System Sensible Cooling Energy [J] !Hourly
705,1,THERMAL ZONE 8,Zone Air System Sensible Heating Energy [J] !Hourly
730,1,THERMAL ZONE 8,Zone Air System Sensible Cooling Energy [J] !Hourly
11,9,Electricity:Facility [J] !Monthly [Value,Min,Day,Hour,Minute,Max,Day,Hour,Minute]
End of Data Dictionary
1,RUN PERIOD 1,  33.63, -84.44,  -5.00, 308.00
2,1, 1, 1, 0, 1, 0.00,60.00,Tuesday
383,6.2816782674837718
384,13.290141974726345
385,13.296354832749199
386,17.345551652669813
387,21.92597754845384
388,20.979617526167208
389,17.90241883942226
390,12.47274839901448
391,113930495.21290535
452,0.0
477,83652.10900203245
502,14734.526055789822
515,114633.07824658347
540,23237.225361877016
553,7178569.296821396
578,0.0
591,14023758.390054176
616,0.0
629,13441795.013389109
654,0.0
667,6608126.735713365
692,0.0
705,119929.55174111664
730,0.0
2,1, 1, 1, 0, 2, 0.00,60.00,Tuesday
383,6.242540874986887
384,13.08047699297535
385,13.165116480792412
386,17.972304010137955
387,22.098885783011565
388,21.2742993982272
389,18.25092634642322
390,12.34735009317039
391,118849998.67396896
452,0.0
477,219120.7755542561
502,0.0
515,263081.13394347127
540,0.0
553,8621331.772826909
578,0.0
591,17661919.365372968
616,0.0
629,16726980.405556366
654,0.0
667,8029966.305928979
692,0.0
705,166092.24520704436
730,0.0
2,1, 1, 1, 0, 3, 0.00,60.00,Tuesday
383,6.230212018715207
384,12.639425363143197
385,12.438855896953005
386,17.99884157712104
387,21.669038238706294
388,20.999107921009715
389,18.343689290742135
390,12.167778423002418
391,114454173.58417347
452,0.0
477,266457.6808204852
502,0.0
515,448230.53337325269
540,0.0
553,5969422.441888163
578,0.0
591,11743352.310199146
616,0.0
629,11188490.050203823
654,0.0
667,5523653.987525875
692,0.0
705,153563.0909901451
730,0.0
2,1, 1, 1, 0, 4, 0.00,60.00,Tuesday
383,6.227705409663361
384,12.36932503571698
385,11.896108986220309
386,18.000044425164057
387,21.297348913868196
388,20.69649395178075
389,18.324893667152027
390,12.038412535302579
391,100151663.16913197
452,0.0
477,67906.03931384253
502,0.0
515,292767.4910310012
540,0.0
553,4909308.767524539
578,0.0
591,9491447.88161846
616,0.0
629,9075644.942960149
654,0.0
667,4532800.592736881
692,0.0
705,63452.069137050625
730,0.0
2,1, 1, 1, 0, 5, 0.00,60.00,Tuesday
383,6.225981181251788
384,11.252885469218441
385,10.192024124688193
386,18.00011568062811
387,21.12867449465162
388,20.622272240253687
389,18.400277406494668
390,11.556705750024369
391,45429310.398888688
452,0.0
477,0.0
502,663959.4707853115
515,0.0
540,456858.7622595057
553,4485280.072030331
578,0.0
591,8602332.757014662
616,0.0
629,8204514.194005957
654,0.0
667,4116490.6623920819
692,0.0
705,0.0
730,282110.5250341372
2,1, 1, 1, 0, 6, 0.00,60.00,Tuesday
383,6.225711228966778
384,11.50667108657948
385,10.650979875383081
386,18.00024250658813
387,21.041530861115349
388,20.584270467506465
389,18.430352194007555
390,11.65941942169292
391,69716929.76622471
452,0.0
477,0.0
502,264252.0543898211
515,1453.6456016071953
540,0.0
553,4255622.44344318
578,0.0
591,8118356.443417012
616,0.0
629,7731569.889146408
654,0.0
667,3893615.6607000788
692,0.0
705,0.0
730,115951.90595614753
2,1, 1, 1, 0, 7, 0.00,60.00,Tuesday
383,6.224821274119115
384,13.67424495677768
385,13.448404074653283
386,18.000132782761115
387,21.044657485801787
388,20.630232561228924
389,18.473631438853283
390,12.66502555018012
391,186749450.68399019
452,0.0
477,1369314.5580296652
502,0.0
515,1962815.9764349564
540,0.0
553,4171706.4389765236
578,0.0
591,7920536.349024637
616,0.0
629,7525752.191677714
654,0.0
667,3804409.276533996
692,0.0
705,625967.0788817987
730,0.0
2,1, 1, 1, 0, 8, 0.00,60.00,Tuesday
383,6.225000168818987
384,12.979331778522474
385,12.482435591738945
386,18.00029600124296
387,21.08384817559217
388,20.697905833822739
389,18.493405213647678
390,12.43985861939161
391,147893356.3271002
452,0.0
477,819522.8525045042
502,0.0
515,1327635.3706478715
540,0.0
553,4138067.36295369
578,0.0
591,7818778.76072868
616,0.0
629,7416334.016584151
654,0.0
667,3768116.38805327
692,0.0
705,367190.3379189309
730,0.0
2,1, 1, 1, 0, 9, 0.00,60.00,Tuesday
383,6.225026995016918
384,13.049863612628446
385,12.404201715954624
386,13.984314424092208
387,14.429232554446882
388,14.382636274732317
389,14.683165613162512
390,12.479702499146518
391,136856552.7435416
452,0.0
477,580457.8159829342
502,0.0
515,1064476.7395062417
540,0.0
553,6546.7497850071599
578,432737.87735350706
591,0.0
616,1260012.4239432244
629,0.0
654,1135375.3016604942
667,0.0
692,567990.1316502148
705,281750.8534842139
730,0.0
2,1, 1, 1, 0,10, 0.00,60.00,Tuesday
383,6.225152999395059
384,14.182194431888793
385,14.059908280845349
386,12.75294303492549
387,12.041059122588825
388,12.075425208139386
389,13.384662506555938
390,13.055034867136252
391,203748514.181341
452,0.0
477,1546801.541712954
502,0.0
515,2161230.786707564
540,0.0
553,0.0
578,617902.2595964631
591,0.0
616,1017627.2802177034
629,0.0
654,956538.6102176554
667,0.0
692,731913.6453735852
705,705544.4793232981
730,0.0
2,1, 1, 1, 0,11, 0.00,60.00,Tuesday
383,6.225177078931538
384,13.434504934723887
385,12.75539345928531
386,11.598370864394445
387,10.753006374441397
388,10.777162262761348
389,12.257140559958275
390,12.765958028520427
391,147317856.34333966
452,0.0
477,667055.626370542
502,0.0
515,1196777.2300623237
540,0.0
553,0.0
578,562234.0497174404
591,0.0
616,808132.8580031192
629,0.0
654,757900.141119899
667,0.0
692,686107.3129389044
705,325290.05259343018
730,0.0
2,1, 1, 1, 0,12, 0.00,60.00,Tuesday
383,6.225297295607002
384,13.73442254542725
385,13.221916084335924
386,11.286641325355989
387,9.973537219177623
388,9.799862312600976
389,12.06856753563954
390,12.685705089502119
391,126079940.39168142
452,0.0
477,155661.187262121
502,0.0
515,428917.71765194498
540,0.0
553,0.0
578,646135.667815213
591,0.0
616,725073.4141290539
629,0.0
654,572673.5000368888
667,0.0
692,794445.1569154114
705,178839.7351954651
730,0.0
2,1, 1, 1, 0,13, 0.00,60.00,Tuesday
383,6.225470833384099
384,14.298263490888378
385,13.945311632987045
386,10.829295511591852
387,9.360700369901938
388,9.211367008498368
389,11.586942861255193
390,13.022133437926167
391,161931108.5081024
452,0.0
477,686414.9922634406
502,0.0
515,1085385.8507264378
540,0.0
553,0.0
578,592933.7083232966
591,0.0
616,508190.9636223864
629,0.0
654,386206.2738996545
667,0.0
692,738650.5545098041
705,402530.2723793012
730,0.0
2,1, 1, 1, 0,14, 0.00,60.00,Tuesday
383,6.225244880051169
384,14.209478440882098
385,13.732278970828322
386,10.612482829645982
387,8.971002612805325
388,8.780311363645597
389,11.351213672478167
390,13.020138076079276
391,146082880.48510564
452,0.0
477,401325.32663221217
502,0.0
515,749120.4365445287
540,0.0
553,0.0
578,594073.907543146
591,0.0
616,407746.58517489957
629,0.0
654,270927.39718444316
667,0.0
692,735183.7828936277
705,286455.5017390975
730,0.0
2,1, 1, 1, 0,15, 0.00,60.00,Tuesday
383,6.225351757682545
384,13.277115857558356
385,12.311718444138656
386,10.429163118821198
387,8.630425354139256
388,8.420420383288779
389,11.162673405193666
390,12.599695050665627
391,84371840.35793947
452,0.0
477,0.0
502,525308.1322050849
515,0.0
540,308212.82807608068
553,0.0
578,612854.5777191635
591,0.0
616,357734.8692509531
629,0.0
654,214221.883484162
667,0.0
692,751578.7695081763
705,0.0
730,117274.38006603622
2,1, 1, 1, 0,16, 0.00,60.00,Tuesday
383,6.225338596874769
384,12.252297668243449
385,11.122825180362004
386,10.400639543424314
387,8.449914391013336
388,8.169817992508899
389,11.128348381954562
390,12.069317105986058
391,33045363.842568388
452,0.0
477,0.0
502,1218637.130344156
515,0.0
540,1184264.1647483623
553,0.0
578,629283.8673727003
591,0.0
616,305273.4032975425
629,0.0
654,127343.2163024869
667,0.0
692,765639.366197422
705,0.0
730,432212.58535583867
2,1, 1, 1, 0,17, 0.00,60.00,Tuesday
383,9.748245499818893
384,15.355322659194166
385,15.605433946563619
386,10.42371818405321
387,8.35055580239205
388,7.973039585148625
389,11.249585096323838
390,13.305553258060919
391,132493604.63499394
452,0.0
477,869788.1962519103
502,0.0
515,1080474.3346387314
540,0.0
553,0.0
578,657084.441220733
591,0.0
616,297040.3567343362
629,0.0
654,66198.66503036776
667,0.0
692,815320.4512441277
705,560098.7080051745
730,0.0
2,1, 1, 1, 0,18, 0.00,60.00,Tuesday
383,10.07935807397985
384,15.865025456313845
385,16.31281398368813
386,10.332386646976764
387,8.138953485638789
388,7.751962575799579
389,11.18953319088161
390,13.602690102263209
391,163722506.01381467
452,0.0
477,1429766.636421937
502,0.0
515,1760572.90004174
540,0.0
553,0.0
578,681959.6474855648
591,0.0
616,283318.07204835829
629,0.0
654,48343.800803948514
667,0.0
692,846195.8591528596
705,792945.5060744137
730,0.0
2,1, 1, 1, 0,19, 0.00,60.00,Tuesday
383,10.143755303999342
384,15.249804278332995
385,15.421815088280273
386,10.208418890980106
387,7.891017346539922
388,7.501113572354744
389,11.109725851662463
390,13.33231354580533
391,103974284.43936244
452,0.0
477,464133.09528579356
502,0.0
515,560228.6036466132
540,0.0
553,0.0
578,720546.2359312254
591,0.0
616,299416.59779523298
629,0.0
654,61578.428356762466
667,0.0
692,893036.7846869438
705,393941.4606685143
730,0.0
2,1, 1, 1, 0,20, 0.00,60.00,Tuesday
383,10.166433999309115
384,15.146308668596263
385,15.321766194363434
386,9.998414882583316
387,7.592982279257276
388,7.260398408436347
389,10.92474627753761
390,13.269635170431052
391,105962102.60230378
452,0.0
477,542698.3374476188
502,0.0
515,665905.8391796814
540,0.0
553,0.0
578,723876.3520103734
591,0.0
616,254694.5072095985
629,0.0
654,51881.9582923471
667,0.0
692,902168.6413060685
705,418461.1926047782
730,0.0
2,1, 1, 1, 0,21, 0.00,60.00,Tuesday
383,10.182102426150197
384,15.38932074882468
385,16.05696252008012
386,9.710670367134501
387,7.207008201085669
388,6.9435820232950509
389,10.635606320140023
390,13.387066932731856
391,138253322.2792337
452,0.0
477,1108736.0985804355
502,0.0
515,1229663.9702090529
540,0.0
553,0.0
578,745781.588545473
591,0.0
616,247294.93415947225
629,0.0
654,83084.88896396029
667,0.0
692,922397.3094393712
705,643547.861864758
730,0.0
2,1, 1, 1, 0,22, 0.00,60.00,Tuesday
383,10.187923503824742
384,15.670524100290362
385,16.584116062914995
386,9.485697760800715
387,6.899450131792592
388,6.644889865851063
389,10.430906860713052
390,13.46016921760112
391,159982285.61578424
452,0.0
477,1451646.0248274792
502,0.0
515,1593334.0137815476
540,0.0
553,0.0
578,767745.4308221603
591,0.0
616,249359.10438702198
629,0.0
654,89866.62090618393
667,0.0
692,947882.3193790744
705,795142.4842718862
730,0.0
2,1, 1, 1, 0,23, 0.00,60.00,Tuesday
383,10.18985985738491
384,15.553289184392814
385,16.501044362276568
386,9.226069657089579
387,6.5594852173749349
388,6.320250875192516
389,10.12175010505549
390,13.370658531477544
391,154335216.36861754
452,0.0
477,1377481.7787010296
502,0.0
515,1477971.178788393
540,0.0
553,0.0
578,778030.0172085157
591,0.0
616,225622.83532161686
629,0.0
654,76432.3107007579
667,0.0
692,945631.4749643522
705,764276.3267184361
730,0.0
2,1, 1, 1, 0,24, 0.00,60.00,Tuesday
383,10.19154063310233
384,14.95713526320338
385,15.824680403263893
386,8.649699635464842
387,6.073540027466569
388,5.983958944883117
389,9.376522221692966
390,13.256310275978223
391,150795523.98596395
452,0.0
477,1493071.1524143876
502,0.0
515,1669517.1174592274
540,0.0
553,0.0
578,735463.9086837134
591,0.0
616,180256.5461005587
629,0.0
654,116868.09290000714
667,0.0
692,865128.1030948216
705,751706.6475816863
730,0.0
2,2, 1, 2, 0, 1, 0.00,60.00,Wednesday
383,6.286940362142094
384,13.302953777385003
385,13.406077044634208
386,17.32877166530674
387,21.987069509212274
388,21.070435134333889
389,17.972241712893618
390,12.441315554858225
391,120308600.91033474
452,0.0
477,196475.41031106644
502,1563.5498736066323
515,232126.3490914276
540,9888.51356314328
553,7276446.745204964
578,0.0
591,14205166.208071964
616,0.0
629,13592566.753858349
654,0.0
667,6679341.114654002
692,0.0
705,171886.95187256818
730,0.0
2,2, 1, 2, 0, 2, 0.00,60.00,Wednesday
383,6.245682497701942
384,12.263522390770131
385,12.029527458614562
386,17.986710384139799
387,22.236219652235556
388,21.432246518727628
389,18.34638043480373
390,11.887209707152742
391,82993592.89110536
452,0.0
477,0.0
502,230545.98366910796
515,0.0
540,215518.4144685004
553,8757542.158334697
578,0.0
591,17905737.851165683
616,0.0
629,16940206.248388538
654,0.0
667,8138560.536304057
692,0.0
705,0.0
730,42387.03561561136
2,2, 1, 2, 0, 3, 0.00,60.00,Wednesday
383,6.235272255889713
384,12.572153948681145
385,12.536782510246507
386,17.999272534224489
387,21.874132248475406
388,21.20695448248228
389,18.40246881850797
390,11.9632078069834
391,123927965.04327053
452,0.0
477,476819.1235902333
502,0.0
515,665242.1659579966
540,0.0
553,6380634.366156315
578,0.0
591,12581545.202044644
616,0.0
629,11959225.638103474
654,0.0
667,5895837.473934963
692,0.0
705,247635.6361471942
730,0.0
2,2, 1, 2, 0, 4, 0.00,60.00,Wednesday
383,6.228333089136359
384,11.542480822376828
385,10.831214351516407
386,18.00012770207829
387,21.534213887814674
388,20.953859495696869
389,18.397188898946824
390,11.465037099592563
391,72560699.69793473
452,0.0
477,0.0
502,217820.56190486565
515,43530.03660188601
540,39985.51759170654
553,5235105.995102981
578,0.0
591,10111165.946067183
616,0.0
629,9635277.64863136
654,0.0
667,4821492.279561652
692,0.0
705,0.0
730,72117.02298445399
2,2, 1, 2, 0, 5, 0.00,60.00,Wednesday
383,6.225973720552327
384,12.830738505017056
385,12.708986532218168
386,18.000089272174717
387,21.381319882018354
388,20.867899929193994
389,18.427198378194708
390,12.02799091628885
391,147936227.77568836
452,0.0
477,866484.6296536275
502,0.0
515,1233212.060384837
540,0.0
553,4817448.9833889999
578,0.0
591,9227637.287159566
616,0.0
629,8784412.981673375
654,0.0
667,4422042.7233891929
692,0.0
705,414949.041324494
730,0.0
2,2, 1, 2, 0, 6, 0.00,60.00,Wednesday
383,6.225315150494147
384,12.232089430501972
385,11.633945573617007
386,18.000166864253278
387,21.333966485569026
388,20.867198975914158
389,18.454016074085897
390,11.816413863574944
391,117540375.31635812
452,0.0
477,453297.64761397129
502,0.0
515,871038.0170049088
540,0.0
553,4611524.335733669
578,0.0
591,8775281.27031457
616,0.0
629,8341984.743735016
654,0.0
667,4222225.640882157
692,0.0
705,216583.99074573909
730,0.0
2,2, 1, 2, 0, 7, 0.00,60.00,Wednesday
383,6.225284814643883
384,12.13446452257662
385,11.36873858755088
386,18.000187921484338
387,21.297989203137413
388,20.839705212608327
389,18.432452055855785
390,11.770869185233316
391,105594726.14663959
452,0.0
477,248343.0684362117
502,0.0
515,662330.1024558179
540,0.0
553,4437765.361930309
578,0.0
591,8391198.499497369
616,0.0
629,7983430.755526008
654,0.0
667,4064214.263436895
692,0.0
705,134323.15021258448
730,0.0
2,2, 1, 2, 0, 8, 0.00,60.00,Wednesday
383,6.225191220428702
384,11.41421241916341
385,10.232821698893594
386,18.000121682043447
387,21.331864212059878
388,20.908797895331789
389,18.446550818303078
390,11.448941847393832
391,67883855.11560771
452,0.0
477,0.0
502,271169.14054184968
515,129475.74048508179
540,0.0
553,4382077.636684751
578,0.0
591,8241022.244118546
616,0.0
629,7825708.822045579
654,0.0
667,4008516.021559761
692,0.0
705,0.0
730,104897.17763130716
2,2, 1, 2, 0, 9, 0.00,60.00,Wednesday
383,6.225134073348399
384,10.690411256537598
385,9.153443277731105
386,13.833019678127654
387,14.363169552763149
388,14.28499124728881
389,14.461496840690972
390,11.136248664257998
391,33816521.569362159
452,0.0
477,0.0
502,717916.1638874507
515,0.0
540,329498.3099670635
553,4135.063700802311
578,485390.9578866926
591,0.0
616,1439354.235020048
629,0.0
654,1283269.3177238319
667,0.0
692,602788.9625197211
705,0.0
730,318509.8775618766
2,2, 1, 2, 0,10, 0.00,60.00,Wednesday
383,6.22522728320863
384,11.104019008135577
385,9.719082781986396
386,12.668861373349739
387,12.024750400539764
388,12.016938509530327
389,13.208296754042245
390,11.352875406315994
391,60563820.2673701
452,0.0
477,0.0
502,319636.1513452053
515,149522.85771594817
540,0.0
553,0.0
578,624064.9603886233
591,0.0
616,1072509.6597654804
629,0.0
654,983929.2384358903
667,0.0
692,715540.2801322672
705,0.0
730,147611.25425429358
2,2, 1, 2, 0,11, 0.00,60.00,Wednesday
383,6.225289053605027
384,10.785810189119316
385,9.093422834730179
386,11.681311640201633
387,10.962339513119117
388,10.935277804068967
389,12.206460787138921
390,11.297879777970508
391,39787561.49224911
452,0.0
477,0.0
502,630411.051849952
515,0.0
540,144274.62335194965
553,0.0
578,470463.08539024708
591,0.0
616,669351.4569000483
629,0.0
654,601877.7582600301
667,0.0
692,567855.0510407246
705,0.0
730,293576.6390959613
2,2, 1, 2, 0,12, 0.00,60.00,Wednesday
383,6.226122780588978
384,11.586946181728046
385,10.259481917973706
386,11.47055595768979
387,10.239818044186821
388,10.004362931875843
389,12.105838151392577
390,11.517412119434617
391,45722698.4434231
452,0.0
477,0.0
502,762689.0799502237
515,0.0
540,478702.16345569919
553,0.0
578,540558.7600466731
591,0.0
616,527585.5543355178
629,0.0
654,356700.71459654779
667,0.0
692,660144.1079361832
705,0.0
730,275676.82536457598
2,2, 1, 2, 0,13, 0.00,60.00,Wednesday
383,6.22559692749978
384,12.333846371871767
385,10.657519009829399
386,11.708122967355554
387,10.18441836169664
388,9.701739068946221
389,11.884651826326266
390,11.814318181280134
391,49396320.99199436
452,0.0
477,0.0
502,922930.536563535
515,0.0
540,549507.3195054596
553,0.0
578,599657.7315575172
591,0.0
616,490655.78241535168
629,0.0
654,186734.13575044625
667,0.0
692,605540.3729661246
705,0.0
730,283322.48491374487
2,2, 1, 2, 0,14, 0.00,60.00,Wednesday
383,6.225243271323636
384,12.480522882421415
385,10.577937884192437
386,12.025857318805145
387,10.294018637509585
388,9.60047619607083
389,11.953961037563749
390,11.912687972972265
391,26521865.394742006
452,0.0
477,0.0
502,1419441.8367022116
515,0.0
540,1130792.382240837
553,0.0
578,635239.788493674
591,0.0
616,449379.58514768598
629,619.4633556074678
654,33333.128546970875
667,0.0
692,579320.2658022654
705,0.0
730,462356.26669662739
2,2, 1, 2, 0,15, 0.00,60.00,Wednesday
383,6.225189347444127
384,12.868849525059867
385,10.979095300997163
386,12.418696254486012
387,10.464322705079793
388,9.607738876569032
389,12.145687756982007
390,12.227715947511222
391,28035014.97990702
452,0.0
477,0.0
502,1511242.2484186996
515,0.0
540,1260737.0775757307
553,0.0
578,691215.5860516189
591,0.0
616,446850.26788160388
629,59386.45391653263
654,0.0
667,0.0
692,583586.5390876436
705,0.0
730,488018.95521486448
2,2, 1, 2, 0,16, 0.00,60.00,Wednesday
383,6.225103025908119
384,12.870874263084332
385,11.105321927601285
386,12.848674161708665
387,10.740925084984074
388,9.721888319260549
389,12.523081877087332
390,12.360007493791012
391,14603524.396844373
452,0.0
477,0.0
502,1776497.4430612685
515,0.0
540,1674921.0959415613
553,0.0
578,747732.3791829037
591,0.0
616,486999.53235339318
629,111797.71209579817
654,0.0
667,0.0
692,624026.9251973231
705,0.0
730,601877.1675778313
2,2, 1, 2, 0,17, 0.00,60.00,Wednesday
383,7.842748520864216
384,13.654658932167692
385,12.234165417971287
386,13.242842379399042
387,11.017757380334429
388,9.865998603330557
389,13.025418877338073
390,12.735944637185903
391,18004737.6417993
452,0.0
477,0.0
502,1450299.7175618946
515,0.0
540,1376272.4434143054
553,0.0
578,777626.2474111976
591,0.0
616,486749.9941532539
629,185018.41900966364
654,0.0
667,0.0
692,678085.4206098117
705,0.0
730,433422.53499487557
2,2, 1, 2, 0,18, 0.00,60.00,Wednesday
383,8.869118918948314
384,14.018819652548862
385,12.812404644879287
386,13.447880706239765
387,11.141407410849457
388,9.997461087827127
389,13.30922742489765
390,12.980549115722809
391,18067668.496077725
452,0.0
477,0.0
502,1243008.6500954908
515,0.0
540,1184263.772698481
553,0.0
578,767976.7566740303
591,0.0
616,415690.2278889324
629,246147.38416051435
654,0.0
667,0.0
692,687946.2793456484
705,0.0
730,342552.0551461994
2,2, 1, 2, 0,19, 0.00,60.00,Wednesday
383,9.2015587044846
384,14.084244703313125
385,13.05070568044864
386,13.448939317173635
387,11.071679921604382
388,9.980123480084773
389,13.445968310398598
390,13.080985635508207
391,16641602.362231974
452,0.0
477,0.0
502,1187929.0860234767
515,0.0
540,1182387.5505892966
553,0.0
578,784383.4104055438
591,0.0
616,411792.9787156099
629,220881.00537956548
654,0.0
667,0.0
692,735945.2531043659
705,0.0
730,326140.5995334352
2,2, 1, 2, 0,20, 0.00,60.00,Wednesday
383,9.817086988726154
384,13.77111631030051
385,12.56891929937661
386,13.296124276221054
387,10.854631518530967
388,9.87820778786294
389,13.39978364209734
390,13.025861844640115
391,0.0
452,2283606.5477090815
477,0.0
502,1271928.9172375682
515,0.0
540,1225808.0252158868
553,0.0
578,804916.3278295763
591,0.0
616,421672.3576843594
629,148334.16492697766
654,0.0
667,0.0
692,780841.7641233341
705,0.0
730,387255.0945384696
2,2, 1, 2, 0,21, 0.00,60.00,Wednesday
383,9.874877529038427
384,13.648480242244562
385,12.77741270954212
386,13.023679538997996
387,10.630700264027754
388,9.793822986914677
389,13.241613763200704
390,13.025454857768754
391,10651163.23877128
452,0.0
477,0.0
502,961110.5648701687
515,0.0
540,942133.228908992
553,0.0
578,747284.544772612
591,0.0
616,316233.92276157959
629,168722.71074909112
654,0.0
667,0.0
692,754153.9592236019
705,0.0
730,285698.61964740176
2,2, 1, 2, 0,22, 0.00,60.00,Wednesday
383,10.386922571394003
384,13.507697592247532
385,12.607110888069029
386,12.85519325885108
387,10.442117767484401
388,9.65411706569081
389,13.1132782040343
390,12.913328811559954
391,0.0
452,1774120.7228048123
477,0.0
502,1003168.7843018989
515,0.0
540,987054.1854022788
553,0.0
578,770753.7877851036
591,0.0
616,359235.96996825459
629,102162.87160848992
654,0.0
667,0.0
692,785828.1355094451
705,0.0
730,304651.4060780259
2,2, 1, 2, 0,23, 0.00,60.00,Wednesday
383,10.285478173633149
384,14.163844007891943
385,13.827533221945238
386,12.553981790873252
387,10.17480175513861
388,9.502942245453612
389,12.931373551488797
390,13.215984347537868
391,44815138.97601097
452,0.0
477,0.0
502,320243.96638522986
515,0.0
540,294451.5310992034
553,0.0
578,739275.6474471127
591,0.0
616,306186.8906952041
629,87146.18144880136
654,0.0
667,0.0
692,784892.759955229
705,2999.2077064648585
730,12754.783669209224
2,2, 1, 2, 0,24, 0.00,60.00,Wednesday
383,10.231710694698272
384,14.349364985797728
385,14.278159967465055
386,11.994746429843258
387,9.818384116796662
388,9.354517169648407
389,12.270598074345275
390,13.511345511362979
391,89567537.54608737
452,0.0
477,487629.9750093246
502,0.0
515,695073.088654599
540,0.0
553,0.0
578,637496.2900286442
591,0.0
616,189739.17150758644
629,80104.83312475817
654,0.0
667,0.0
692,664924.2588977767
705,278176.89472028068
730,0.0
2,3, 1, 3, 0, 1, 0.00,60.00,Thursday
383,6.488566572355611
384,12.30237556261487
385,11.215048793510777
386,17.76501176373644
387,20.30363128016906
388,19.139315994709098
389,17.768872580146679
390,12.557159255930135
391,26913895.65827757
452,0.0
477,0.0
502,1272009.9697343256
515,0.0
540,1274986.422011143
553,4015342.612983597
578,32304.570306567024
591,7943851.171829842
616,161835.48860682478
629,7933130.449816316
654,122806.73949053814
667,3769643.2387047915
692,29845.589777054996
705,0.0
730,502785.5706603979
2,3, 1, 3, 0, 2, 0.00,60.00,Thursday
383,6.370376990361251
384,12.10388679509686
385,11.210584266709585
386,17.98211784533164
387,20.181516882026835
388,19.31263231398016
389,18.034713346692877
390,12.468947062325542
391,44348608.59306162
452,0.0
477,0.0
502,903684.7572307587
515,0.0
540,854746.3306376218
553,4913478.6642948989
578,0.0
591,10155899.581261477
616,0.0
629,9835285.363708588
654,0.0
667,4601955.9908441179
692,0.0
705,0.0
730,378428.523575286
2,3, 1, 3, 0, 3, 0.00,60.00,Thursday
383,6.2512945245774989
384,13.060430166550626
385,12.68521028224174
386,17.999684199591834
387,20.07406359744315
388,19.34727823742842
389,18.11158862926367
390,12.817846422154905
391,107726596.1049169
452,0.0
477,36254.62835610844
502,25269.217251000282
515,173588.89611351174
540,0.0
553,3818591.4514109848
578,0.0
591,7675229.9132088259
616,0.0
629,7471375.140020952
654,0.0
667,3559492.676900273
692,0.0
705,32068.02618584354
730,0.0
2,3, 1, 3, 0, 4, 0.00,60.00,Thursday
383,6.226992008336268
384,13.115676206799487
385,12.540872855770023
386,18.000132170935019
387,19.987810268989326
388,19.3710882046756
389,18.1772741205676
390,12.86937816764729
391,108188612.43198572
452,0.0
477,0.0
502,4666.651673539036
515,236629.65089253477
540,0.0
553,3357673.283482254
578,0.0
591,6651239.261110284
616,0.0
629,6467368.651733664
654,0.0
667,3110970.0969903788
692,0.0
705,26669.612515753193
730,0.0
2,3, 1, 3, 0, 5, 0.00,60.00,Thursday
383,6.22574370464832
384,12.889184976215445
385,12.160635939061182
386,18.000195914304908
387,19.976906805894925
388,19.431499857985153
389,18.221597271601877
390,12.787511277514291
391,97467375.07035232
452,0.0
477,0.0
502,145906.80382799233
515,108998.85631282923
540,0.0
553,3142531.2224471957
578,0.0
591,6155640.876119882
616,0.0
629,5971537.082191985
654,0.0
667,2898293.4008247458
692,0.0
705,0.0
730,42562.45743763852
2,3, 1, 3, 0, 6, 0.00,60.00,Thursday
383,7.835999163338259
384,11.483978880182605
385,10.087100469375498
386,18.000093550327948
387,19.925946183714549
388,19.406544051992549
389,18.180370631514529
390,12.169622533717677
391,0.0
452,1412301.1922372778
477,0.0
502,1158470.0329219199
515,0.0
540,989467.6998124672
553,2934553.2775134819
578,0.0
591,5700542.568259054
616,0.0
629,5537903.798747167
654,0.0
667,2712845.919837554
692,0.0
705,0.0
730,510120.95573964106
2,3, 1, 3, 0, 7, 0.00,60.00,Thursday
383,6.312636213229795
384,13.52731909360299
385,13.308960088284762
386,18.000018606202546
387,20.018961923650733
388,19.567952788084413
389,18.2713928571827
390,13.09084181844394
391,130705301.55371917
452,0.0
477,337474.7704162572
502,0.0
515,552583.9269204964
540,0.0
553,2962910.955091508
578,0.0
591,5711327.408058239
616,0.0
629,5510257.320317526
654,0.0
667,2717615.9185305319
692,0.0
705,175901.19775256024
730,0.0
2,3, 1, 3, 0, 8, 0.00,60.00,Thursday
383,6.252618742400801
384,13.874142274005499
385,13.427020142508465
386,18.000092904520156
387,20.077339138849433
388,19.668386229987946
389,18.31158387725523
390,13.341172380993573
391,152165845.15866969
452,0.0
477,634129.2243573332
502,0.0
515,1053913.0004123692
540,0.0
553,2949368.944724339
578,0.0
591,5644944.785675224
616,0.0
629,5425984.321112349
654,0.0
667,2695271.4468770858
692,0.0
705,297396.48806731859
730,0.0
2,3, 1, 3, 0, 9, 0.00,60.00,Thursday
383,6.226134328227127
384,15.632670772070913
385,15.887562052930392
386,15.038494045459777
387,15.158871440318322
388,15.01754564194368
389,15.463158771379704
390,14.218844633996369
391,234042399.9238358
452,0.0
477,1693375.2753105367
502,0.0
515,2201719.4000514375
540,0.0
553,8055.97632489508
578,316932.7295613571
591,0.0
616,792692.5725141597
629,0.0
654,652734.6904587242
667,263.82860208065656
692,392266.31590677317
705,793088.2909204693
730,0.0
2,3, 1, 3, 0,10, 0.00,60.00,Thursday
383,6.225307828652034
384,15.010762613005405
385,14.60138305267439
386,14.273527485704733
387,13.622138749949647
388,13.496743940205219
389,14.554127329269273
390,14.062063222864225
391,166721015.60854323
452,0.0
477,559705.216064574
502,0.0
515,936450.2704260591
540,0.0
553,0.0
578,466804.04422984426
591,0.0
616,701056.8384051832
629,0.0
654,577058.0979778428
667,0.0
692,505749.4216949372
705,317651.0164916908
730,0.0
2,3, 1, 3, 0,11, 0.00,60.00,Thursday
383,6.2253053621855118
384,14.68088978070603
385,13.814011602005947
386,13.62838540459094
387,12.861907135393583
388,12.674091743844717
389,13.831321658833954
390,14.046854759007506
391,127404761.33617682
452,0.0
477,0.0
502,112583.32804509145
515,212984.79479862817
540,0.0
553,0.0
578,429907.02526549
591,0.0
616,546305.8209672299
629,0.0
654,400168.56580147807
667,0.0
692,452457.0044322745
705,31241.969797589965
730,0.0
2,3, 1, 3, 0,12, 0.00,60.00,Thursday
383,6.225096265883419
384,14.435925370566093
385,13.48831194681371
386,13.742459476937045
387,12.658199489468455