Program Version,EnergyPlus, Version 9.2.0-921312fa1d, YMD=2020.01.15 16:48
1,5,Environment Title[],Latitude[deg],Longitude[deg],Time Zone[],Elevation[m]
2,8,Day of Simulation[],Month[],Day of Month[],DST Indicator[1=yes 0=no],Hour[],StartMinute[],EndMinute[],DayType
3,5,Cumulative Day of Simulation[],Month[],Day of Month[],DST Indicator[1=yes 0=no],DayType  ! When Daily Report Variables Requested
4,2,Cumulative Days of Simulation[],Month[]  ! When Monthly Report Variables Requested
5,1,Cumulative Days of Simulation[] ! When Run Period Report Variables Requested
6,1,Calendar Year of Simulation[] ! When Annual Report Variables Requested
493,1,CORE_ZN,Zone Mean Air Temperature [C] !Hourly
494,1,PERIMETER_ZN_1,Zone Mean Air Temperature [C] !Hourly
495,1,PERIMETER_ZN_2,Zone Mean Air Temperature [C] !Hourly
496,1,PERIMETER_ZN_3,Zone Mean Air Temperature [C] !Hourly
497,1,PERIMETER_ZN_4,Zone Mean Air Temperature [C] !Hourly
498,1,ATTIC,Zone Mean Air Temperature [C] !Hourly
End of Data Dictionary
1,WILLIAM R FAIRCHILD ANN HTG 99.6% CONDNS DB,  33.63, -84.43,  -5.00, 308.00
2,1, 1,21, 0, 1, 0.00,60.00,WinterDesignDay
493,21.021040754782399
494,20.846429381402964
495,20.875651332182444
496,20.838091996649614
497,20.887505447318888
498,-8.475409791368453
2,1, 1,21, 0, 2, 0.00,60.00,WinterDesignDay
493,19.834239911552058
494,18.453845847394825
495,18.468106864558103
496,18.52096243777836
497,18.478070380556937
498,-8.464026137484295
2,1, 1,21, 0, 3, 0.00,60.00,WinterDesignDay
493,21.08793644759561
494,21.038653753488736
495,21.031475083434914
496,21.023599070013466
497,21.022118352019719
498,-8.46984665888537
2,1, 1,21, 0, 4, 0.00,60.00,WinterDesignDay
493,19.739998973159449
494,18.311713830693749
495,18.321530500940456
496,18.38169286149743
497,18.33078231013277
498,-8.466188850744928
2,1, 1,21, 0, 5, 0.00,60.00,WinterDesignDay
493,21.0863941890844
494,21.020199434708109
495,21.026997477774456
496,21.007151966890146
497,21.017043241585005
498,-8.47409061955488
2,1, 1,21, 0, 6, 0.00,60.00,WinterDesignDay
493,19.721151212442849
494,18.276996526389586
495,18.2858709076282
496,18.346597244906719
497,18.29508523777078
498,-8.470178024723524
2,1, 1,21, 0, 7, 0.00,60.00,WinterDesignDay
493,21.08609204675423
494,21.01507172843189
495,21.025897252580724
496,21.00250002788959
497,21.015796478915143
498,-8.477294776232345
2,1, 1,21, 0, 8, 0.00,60.00,WinterDesignDay
493,19.7171943927044
494,18.35785311563352
495,18.37354211334371
496,18.427794733731369
497,18.382871939970177
498,-8.472497869581455
2,1, 1,21, 0, 9, 0.00,60.00,WinterDesignDay
493,21.08598722181528
494,21.03906833047176
495,21.0281730527047
496,21.016695337424399
497,21.018587051849054
498,-8.478759291957081
2,1, 1,21, 0,10, 0.00,60.00,WinterDesignDay
493,19.6972580366239
494,18.358107603155653
495,18.371525331714535
496,18.43202771129595
497,18.380678066943259
498,-8.473391942745437
2,1, 1,21, 0,11, 0.00,60.00,WinterDesignDay
493,21.085678262671729
494,21.039203609995029
495,21.028067878860335
496,21.017880230210716
497,21.018483770373576
498,-8.479383240008266
2,1, 1,21, 0,12, 0.00,60.00,WinterDesignDay
493,19.685830675508794
494,18.355088772201179
495,18.36830801468736
496,18.430368753785389
497,18.377253070045727
498,-8.473834649682513
2,1, 1,21, 0,13, 0.00,60.00,WinterDesignDay
493,21.085512162016717
494,21.038701327261806
495,21.027956908784846
496,21.01768659926092
497,21.018341056097854
498,-8.47973604277876
2,1, 1,21, 0,14, 0.00,60.00,WinterDesignDay
493,19.665154072265485
494,18.352434642916987
495,18.365653216860335
496,18.428342436560194
497,18.374474617394648
498,-8.474108442081672
2,1, 1,21, 0,15, 0.00,60.00,WinterDesignDay
493,21.085261938551935
494,21.038251150465486
495,21.027868505611037
496,21.017373209795946
497,21.018224007363565
498,-8.479990971785483
2,1, 1,21, 0,16, 0.00,60.00,WinterDesignDay
493,19.670724917911618
494,18.350205207258566
495,18.363486130697113
496,18.426534365468816
497,18.372247282775957
498,-8.474324218056207
2,1, 1,21, 0,17, 0.00,60.00,WinterDesignDay
493,21.085396101130486
494,21.03789023659068
495,21.027798409022077
496,21.017107426359045
497,21.018132208778359
498,-8.480162224327405
2,1, 1,21, 0,18, 0.00,60.00,WinterDesignDay
493,19.66263596803931
494,18.34858549498487
495,18.361905134579684
496,18.425235162913137
497,18.370641282118109
498,-8.474456629205108
2,1, 1,21, 0,19, 0.00,60.00,WinterDesignDay
493,21.08533313664985
494,21.02865808068056
495,21.027003462466884
496,21.008113427733624
497,21.017023325183776
498,-8.480286628278343
2,1, 1,21, 0,20, 0.00,60.00,WinterDesignDay
493,19.672103942641824
494,18.253436792331237
495,18.260365229852874
496,18.32943490823086
497,18.269020800508597
498,-8.474564126298132
2,1, 1,21, 0,21, 0.00,60.00,WinterDesignDay
493,21.085462294456474
494,21.011349123302556
495,21.025039613501194
496,20.99959030168455
497,21.01480843551097
498,-8.480533945093639
2,1, 1,21, 0,22, 0.00,60.00,WinterDesignDay
493,19.675496845860264
494,18.246435823070134
495,18.25495048467591
496,18.319025317647296
497,18.263906380406845
498,-8.474849758917195
2,1, 1,21, 0,23, 0.00,60.00,WinterDesignDay
493,21.085502062529355
494,21.010179033552555
495,21.024875197743094
496,20.99823959212924
497,21.014634611054708
498,-8.480812634135204
2,1, 1,21, 0,24, 0.00,60.00,WinterDesignDay
493,19.68694702099507
494,18.243901587095757
495,18.2525084450477
496,18.31509008600125
497,18.261571353796179
498,-8.47508221339934
