Program Version,EnergyPlus, Version 9.2.0-921312fa1d, YMD=2020.01.15 16:48
1,5,Environment Title[],Latitude[deg],Longitude[deg],Time Zone[],Elevation[m]
2,8,Day of Simulation[],Month[],Day of Month[],DST Indicator[1=yes 0=no],Hour[],StartMinute[],EndMinute[],DayType
3,5,Cumulative Day of Simulation[],Month[],Day of Month[],DST Indicator[1=yes 0=no],DayType  ! When Daily Meters Requested
4,2,Cumulative Days of Simulation[],Month[]  ! When Monthly Meters Requested
5,1,Cumulative Days of Simulation[] ! When Run Period Meters Requested
6,1,Calendar Year of Simulation[] ! When Annual Meters Requested
27,1,Electricity:Facility [J] !Hourly
942,1,ElectricityNet:Facility [J] !Hourly
1178,1,Gas:Facility [J] !Hourly
End of Data Dictionary
1,WILLIAM R FAIRCHILD ANN HTG 99.6% CONDNS DB,  33.63, -84.43,  -5.00, 308.00
2,1, 1,21, 0, 1, 0.00,60.00,WinterDesignDay
27,35893470.78972845
942,35893470.78972844
1178,37912507.91518031
2,1, 1,21, 0, 2, 0.00,60.00,WinterDesignDay
27,8656470.0
942,8656470.0
1178,0.0
2,1, 1,21, 0, 3, 0.00,60.00,WinterDesignDay
27,38549869.246089298
942,38549869.2460893
1178,26073088.661075958
2,1, 1,21, 0, 4, 0.00,60.00,WinterDesignDay
27,8656470.0
942,8656470.0
1178,0.0
2,1, 1,21, 0, 5, 0.00,60.00,WinterDesignDay
27,38722133.228720869
942,38722133.22872087
1178,27871110.52915566
2,1, 1,21, 0, 6, 0.00,60.00,WinterDesignDay
27,8656470.0
942,8656470.0
1178,0.0
2,1, 1,21, 0, 7, 0.00,60.00,WinterDesignDay
27,38740790.75208032
942,38740790.752080317
1178,28273553.59244576
2,1, 1,21, 0, 8, 0.00,60.00,WinterDesignDay
27,8656470.000062278
942,8656470.000062278
1178,0.0
2,1, 1,21, 0, 9, 0.00,60.00,WinterDesignDay
27,32700673.10850757
942,32700673.108507564
1178,25592459.015841403
2,1, 1,21, 0,10, 0.00,60.00,WinterDesignDay
27,2959200.000062277
942,2959200.0000622768
1178,0.0
2,1, 1,21, 0,11, 0.00,60.00,WinterDesignDay
27,32710495.311290105
942,32710495.3112901
1178,25681289.783212987
2,1, 1,21, 0,12, 0.00,60.00,WinterDesignDay
27,2959200.000062277
942,2959200.0000622768
1178,0.0
2,1, 1,21, 0,13, 0.00,60.00,WinterDesignDay
27,32732172.050253326
942,32732172.05025332
1178,25804880.671296229
2,1, 1,21, 0,14, 0.00,60.00,WinterDesignDay
27,2959200.000062277
942,2959200.0000622768
1178,0.0
2,1, 1,21, 0,15, 0.00,60.00,WinterDesignDay
27,32747971.76032273
942,32747971.760322729
1178,25939710.39997124
2,1, 1,21, 0,16, 0.00,60.00,WinterDesignDay
27,2959200.000062277
942,2959200.0000622768
1178,0.0
2,1, 1,21, 0,17, 0.00,60.00,WinterDesignDay
27,32741793.92187514
942,32741793.92187514
1178,25916174.610934564
2,1, 1,21, 0,18, 0.00,60.00,WinterDesignDay
27,2959200.000062277
942,2959200.0000622768
1178,0.0
2,1, 1,21, 0,19, 0.00,60.00,WinterDesignDay
27,38699148.823037248
942,38699148.82303724
1178,27580115.95822145
2,1, 1,21, 0,20, 0.00,60.00,WinterDesignDay
27,8656470.000062278
942,8656470.000062278
1178,0.0
2,1, 1,21, 0,21, 0.00,60.00,WinterDesignDay
27,38787783.833054658
942,38787783.83305465
1178,28864382.179587578
2,1, 1,21, 0,22, 0.00,60.00,WinterDesignDay
27,8656470.000062278
942,8656470.000062278
1178,0.0
2,1, 1,21, 0,23, 0.00,60.00,WinterDesignDay
27,38782338.75644402
942,38782338.75644403
1178,28894655.88997942
2,1, 1,21, 0,24, 0.00,60.00,WinterDesignDay
27,8656470.0
942,8656470.0
1178,0.0
